ID,Name,InChI,InChIKey,SMILES,Solubility,SD,Ocurrences,Group,MolWt,MolLogP,MolMR,HeavyAtomCount,NumHAcceptors,NumHDonors,NumHeteroatoms,NumRotatableBonds,NumValenceElectrons,NumAromaticRings,NumSaturatedRings,NumAliphaticRings,RingCount,TPSA,LabuteASA,BalabanJ,BertzCT
A-1968,N-(4-acetamidophenyl)-3-hydroxy-2-naphthamide,"InChI=1S/C19H16N2O3/c1-12(22)20-15-6-8-16(9-7-15)21-19(24)17-10-13-4-2-3-5-14(13)11-18(17)23/h2-11,23H,1H3,(H,20,22)(H,21,24)",MSRUOXBBGPWHEG-UHFFFAOYSA-N,CC(=O)Nc1ccc(NC(=O)c2cc3ccccc3cc2O)cc1,-5.250349512,0,1,G1,320.348,3.7561,94.3117,24,3,3,5,3,120,3,0,0,3,78.43,138.4819905,1.816375413,917.5481477
A-1969,N-(5-chloro-2-methylphenyl)-3-hydroxynaphthalene-2-carboxamide,"InChI=1S/C18H14ClNO2/c1-11-6-7-14(19)10-16(11)20-18(22)15-8-12-4-2-3-5-13(12)9-17(15)21/h2-10,21H,1H3,(H,20,22)",XZOACPDZZYNJER-UHFFFAOYSA-N,Cc1ccc(Cl)cc1NC(=O)c2cc3ccccc3cc2O,-5.238559032,0,1,G1,311.768,4.75952,89.755,22,2,2,4,2,110,3,0,0,3,49.33,132.7089303,1.979922873,874.0901968
A-1970,neodymium(3+) ion trihydroxide,InChI=1S/Nd.3H2O/h;3*1H2/q+3;;;/p-3,ZBAQHMBLDSQPHC-UHFFFAOYSA-K,[OH-].[OH-].[OH-].[Nd+3],-5.035343004,0,1,G1,195.261,-0.5304,5.8074,4,3,0,4,0,25,0,0,0,0,90,56.84024526,0,3.245112498
A-1973,"(1,3-benzothiazol-2-ylsulfanyl)(tert-butyl)amine","InChI=1S/C11H14N2S2/c1-11(2,3)13-15-10-12-8-6-4-5-7-9(8)14-10/h4-7,13H,1-3H3",IUJLOAKJZQBENM-UHFFFAOYSA-N,CC(C)(C)NSc1sc2ccccc2n1,-5.136722389,0.120274624,2,G3,238.381,3.6915,68.3657,15,4,1,4,2,80,2,0,0,2,24.92,98.24119708,2.15626897,423.8010154
A-1974,hydrogen telluride,InChI=1S/Te,PORWMNRCUJJQNO-UHFFFAOYSA-N,[Te],-4.875401753,0,1,G1,127.6,-0.3808,5.754,1,0,0,1,0,6,0,0,0,0,0,24.2191035,0,0
A-1978,"3,7-dimethyloct-6-en-1-yl butyrate","InChI=1S/C14H26O2/c1-5-7-14(15)16-11-10-13(4)9-6-8-12(2)3/h8,13H,5-7,9-11H2,1-4H3",XQPZQXTWYZAXAK-UHFFFAOYSA-N,CCCC(=O)OCCC(C)CCC=C(C)C,-5.142612081,0,1,G1,226.36,4.1023,68.313,16,2,0,2,8,94,0,0,0,0,26.3,100.0689628,3.466508957,214.7752311
A-1981,3-hydroxy-N-(4-methoxyphenyl)-2-naphthamide,"InChI=1S/C18H15NO3/c1-22-15-8-6-14(7-9-15)19-18(21)16-10-12-4-2-3-5-13(12)11-17(16)20/h2-11,20H,1H3,(H,19,21)",UIXFPIHXQQZAGX-UHFFFAOYSA-N,COc1ccc(NC(=O)c2cc3ccccc3cc2O)cc1,-5.263224655,0,1,G1,293.322,3.8063,86.56,22,3,2,4,3,110,3,0,0,3,58.56,127.5192094,1.888204044,825.3599221
A-1982,4-{1-[4-(cyanooxy)phenyl]ethyl}phenyl cyanate,"InChI=1S/C16H12N2O2/c1-12(13-2-6-15(7-3-13)19-10-17)14-4-8-16(9-5-14)20-11-18/h2-9,12H,1H3",SIZDMAYTWUINIG-UHFFFAOYSA-N,CC(c1ccc(OC#N)cc1)c2ccc(OC#N)cc2,-5.217950889,0,1,G1,264.284,3.55816,72.883,20,4,0,4,4,98,2,0,0,2,66.04,116.9605156,2.158294513,589.3616073
A-1984,dichlorodioctylstannane,"InChI=1S/2C8H17.2ClH.Sn/c2*1-3-5-7-8-6-4-2;;;/h2*1,3-8H2,2H3;2*1H;/q;;;;+2/p-2",SBOSGIJGEHWBKV-UHFFFAOYSA-L,CCCCCCCC[Sn](Cl)(Cl)CCCCCCCC,-5.415041201,0,1,G1,416.065,7.6272,93.826,19,0,0,3,14,116,0,0,0,0,0,132.8741942,3.362354108,165.5877466
A-1985,didysprosium trioxide,InChI=1S/2Dy.3O/q2*+3;3*-2,GEZAXHSNIQTPMM-UHFFFAOYSA-N,[O--].[O--].[O--].[Dy+3].[Dy+3],-5.367585356,0,1,G1,372.997,-0.3564,2.0595,5,0,0,5,0,38,0,0,0,0,85.5,90.86093538,0,4.854752972
A-1986,dodecanal,"InChI=1S/C12H24O/c1-2-3-4-5-6-7-8-9-10-11-12-13/h12H,2-11H2,1H3",HFJRKMMYBMWEAD-UHFFFAOYSA-N,CCCCCCCCCCCC=O,-5.061459548,0,1,G1,184.323,4.1062,57.908,13,1,0,1,10,78,0,0,0,0,17.07,82.91513639,2.79199884,99.297599
A-1991,"2-ethyl-2-methyl-1,3-dihydroperimidine","InChI=1S/C14H16N2/c1-3-14(2)15-11-8-4-6-10-7-5-9-12(16-14)13(10)11/h4-9,15-16H,3H2,1-2H3",QOYINWMUFFDLBI-UHFFFAOYSA-N,CCC1(C)Nc2cccc3cccc(N1)c23,-3.247760565,0,1,G1,212.296,3.8034,69.8894,16,2,2,2,1,82,2,0,1,3,24.06,95.66672932,2.275371791,504.6766806
A-1994,2-(2-{2-[(2-ethylhexanoyl)oxy]ethoxy}ethoxy)ethyl 2-ethylhexanoate,"InChI=1S/C22H42O6/c1-5-9-11-19(7-3)21(23)27-17-15-25-13-14-26-16-18-28-22(24)20(8-4)12-10-6-2/h19-20H,5-18H2,1-4H3",FRQDZJMEHSJOPU-UHFFFAOYSA-N,CCCCC(CC)C(=O)OCCOCCOCCOC(=O)C(CC)CCCC,-5.420152134,0.05378232,2,G3,402.572,4.5388,110.168,28,6,0,6,19,166,0,0,0,0,71.06,171.1802605,3.567047168,349.2232673
A-1995,"2-hydroxy-1-{1-[4-(2-hydroxy-2-methylpropanoyl)phenyl]-1,3,3-trimethyl-2,3-dihydro-1H-inden-5-yl}-2-methylpropan-1-one; 2-hydroxy-1-{3-[4-(2-hydroxy-2-methylpropanoyl)phenyl]-1,1,3-trimethyl-2,3-dihydro-1H-inden-5-yl}-2-methylpropan-1-one; 2-hydroxy-2-methyl-1-[4-(prop-1-en-2-yl)phenyl]propan-1-one","InChI=1S/2C26H32O4.C13H16O2/c1-23(2)15-26(7,18-11-8-16(9-12-18)21(27)24(3,4)29)19-13-10-17(14-20(19)23)22(28)25(5,6)30;1-23(2)15-26(7,18-11-8-16(9-12-18)21(27)24(3,4)29)20-14-17(10-13-19(20)23)22(28)25(5,6)30;1-9(2)10-5-7-11(8-6-10)12(14)13(3,4)15/h2*8-14,29-30H,15H2,1-7H3;5-8,15H,1H2,2-4H3",UKDKXXBYNYCFSX-UHFFFAOYSA-N,CC(=C)c1ccc(cc1)C(=O)C(C)(C)O.CC(C)(O)C(=O)c2ccc(cc2)C3(C)CC(C)(C)c4cc(ccc34)C(=O)C(C)(C)O.CC(C)(O)C(=O)c5ccc(cc5)C6(C)CC(C)(C)c7ccc(cc67)C(=O)C(C)(C)O,-5.827328879,0.147638833,2,G3,1021.345,11.8355,298.2535,75,10,5,10,13,400,5,0,2,7,186.5,444.5219302,2.20E-07,3007.615867
A-1997,"2-(1-amino-9,10-dioxo-9,10-dihydroanthracen-2-yl)-5H,10H-anthra[2,3-d][1,3]oxazole-5,10-dione","InChI=1S/C29H14N2O5/c30-24-18(10-9-17-23(24)28(35)16-8-4-3-7-15(16)25(17)32)29-31-21-11-19-20(12-22(21)36-29)27(34)14-6-2-1-5-13(14)26(19)33/h1-12H,30H2",RHEVAQGXLUQWBM-UHFFFAOYSA-N,Nc1c(ccc2C(=O)c3ccccc3C(=O)c12)c4oc5cc6C(=O)c7ccccc7C(=O)c6cc5n4,-5.496412982,0,1,G1,470.44,4.6278,130.4714,36,7,1,7,1,170,5,0,2,7,120.33,202.7324128,1.385476793,1806.709885
A-1998,N-(4-ethoxyphenyl)-3-hydroxy-2-naphthamide,"InChI=1S/C19H17NO3/c1-2-23-16-9-7-15(8-10-16)20-19(22)17-11-13-5-3-4-6-14(13)12-18(17)21/h3-12,21H,2H2,1H3,(H,20,22)",FYJKEJZGNQVNLC-UHFFFAOYSA-N,CCOc1ccc(NC(=O)c2cc3ccccc3cc2O)cc1,-5.311540545,0,1,G1,307.349,4.1964,91.177,23,3,2,4,4,116,3,0,0,3,58.56,133.8841515,1.835591439,840.8625818
A-1999,"N-(5-chloro-2,4-dimethoxyphenyl)-3-hydroxy-2-naphthamide","InChI=1S/C19H16ClNO4/c1-24-17-10-18(25-2)15(9-14(17)20)21-19(23)13-7-11-5-3-4-6-12(11)8-16(13)22/h3-10,22H,1-2H3,(H,21,23)",XDWATWCCUTYUDE-UHFFFAOYSA-N,COc1cc(OC)c(NC(=O)c2cc3ccccc3cc2O)cc1Cl,-5.377540581,0,1,G1,357.793,4.4683,98.122,25,4,2,6,4,128,3,0,0,3,67.79,149.3009629,1.974207436,955.5521119
A-2000,Vat brown 3,"InChI=1S/C42H23N3O6/c46-37-24-14-7-8-15-25(24)38(47)34-33(37)30(44-42(51)22-12-5-2-6-13-22)20-28-23-18-19-27-32(35(23)45-36(28)34)40(49)26-16-9-17-29(31(26)39(27)48)43-41(50)21-10-3-1-4-11-21/h1-20,45H,(H,43,50)(H,44,51)",AAKMSGQPNUGLAZ-UHFFFAOYSA-N,O=C(Nc1cccc2C(=O)c3c4[nH]c5c(cc(NC(=O)c6ccccc6)c7C(=O)c8ccccc8C(=O)c57)c4ccc3C(=O)c12)c9ccccc9,-5.647161854,0,1,G1,665.661,6.7549,202.0711,51,6,3,9,4,242,9,0,0,9,142.27,285.6434803,1.346312136,3199.457302
A-2001,1-(4-methoxyphenyl)-2-[(3-methoxyphenyl)sulfanyl]ethan-1-one,"InChI=1S/C16H16O3S/c1-18-13-8-6-12(7-9-13)16(17)11-20-15-5-3-4-14(10-15)19-2/h3-10H,11H2,1-2H3",CXSKVBXJDSVPKS-UHFFFAOYSA-N,COc1ccc(cc1)C(=O)CSc2cccc(OC)c2,-5.284725265,0.048983507,4,G5,288.368,3.6788,81.0425,20,4,0,4,6,104,2,0,0,2,35.53,122.4599884,1.965193272,578.5307856
A-2004,"Anthra[2,1,9-mna]naphtho[2,3-h]acridine-5,10,15(16H)-trione","InChI=1S/C31H15NO3/c33-29-19-6-2-1-5-15(19)16-13-14-24-26-17(9-11-22(29)25(16)26)18-10-12-23-27(28(18)32-24)31(35)21-8-4-3-7-20(21)30(23)34/h1-14,32H",HHKPGQSPFVLKMV-UHFFFAOYSA-N,O=C1c2ccccc2C(=O)c3c4Nc5ccc6c7ccccc7C(=O)c8ccc(c4ccc13)c5c68,-5.506567843,0,1,G1,449.465,6.0433,144.5167,35,3,1,4,0,162,8,0,0,8,67,195.886294,1.671905041,2385.676992
A-2005,"2,2'-oxybis(5,5-dimethyl-1,3,2-dioxaphosphinane) 2,2'-disulfide","InChI=1S/C10H20O5P2S2/c1-9(2)5-11-16(18,12-6-9)15-17(19)13-7-10(3,4)8-14-17/h5-8H2,1-4H3",GAUFKBQSTGCCOC-UHFFFAOYSA-N,CC1(C)CO[P](=S)(OC1)O[P]2(=S)OCC(C)(C)CO2,-5.393383395,0,1,G1,346.347,3.598,81.025,19,7,0,9,2,112,0,2,2,2,46.15,124.3396501,1.980372876,383.2009657
A-2007,1-methyl-4-(propan-2-yl)cyclohex-1-ene,"InChI=1S/C10H18/c1-8(2)10-6-4-9(3)5-7-10/h4,8,10H,5-7H2,1-3H3",FAMJUFMHYAFYNU-UHFFFAOYSA-N,CC(C)C1CCC(=CC1)C,-5.010343937,0,1,G1,138.254,3.3888,45.936,10,0,0,0,1,58,0,0,1,1,0,64.32829587,2.418109176,130.9737366
A-2008,"6-({bis[(5-carboxypentyl)amino]-1,3,5-triazin-2-yl}amino)hexanoic acid","InChI=1S/C21H36N6O6/c28-16(29)10-4-1-7-13-22-19-25-20(23-14-8-2-5-11-17(30)31)27-21(26-19)24-15-9-3-6-12-18(32)33/h1-15H2,(H,28,29)(H,30,31)(H,32,33)(H3,22,23,24,25,26,27)",BKKWPPMEXIXECW-UHFFFAOYSA-N,OC(=O)CCCCCNc1nc(NCCCCCC(O)=O)nc(NCCCCCC(O)=O)n1,-2.542361308,1.873477243,4,G4,468.555,3.0423,123.6075,33,9,6,12,21,186,1,0,0,1,186.66,193.1761592,2.50543209,625.6602217
A-2009,2-methyloctyl prop-2-enoate,"InChI=1S/C13H24O2/c1-4-13(14)15-11-9-7-5-6-8-10-12(2)3/h4,12H,1,5-11H2,2-3H3",LVGFPWDANALGOY-UHFFFAOYSA-N,CC(C)CCCCCCCOC(=O)C=C,-5.199912698,0,1,G1,212.333,3.7122,63.696,15,2,0,2,9,88,0,0,0,0,26.3,93.7040207,3.049012869,173.3747664
A-2011,2-methylundecanal,"InChI=1S/C12H24O/c1-3-4-5-6-7-8-9-10-12(2)11-13/h11-12H,3-10H2,1-2H3",NFAVNWJJYQAGNB-UHFFFAOYSA-N,CCCCCCCCCC(C)C=O,-5.151636178,0,1,G1,184.323,3.9621,57.838,13,1,0,1,9,78,0,0,0,0,17.07,82.91513639,2.948167888,109.6921041
A-2012,"4-{bis[4-(dimethylamino)phenyl]methyl}-N,N-dimethylaniline","InChI=1S/C25H31N3/c1-26(2)22-13-7-19(8-14-22)25(20-9-15-23(16-10-20)27(3)4)21-11-17-24(18-12-21)28(5)6/h7-18,25H,1-6H3",OAZWDJGLIYNYMU-UHFFFAOYSA-N,CN(C)c1ccc(cc1)C(c2ccc(cc2)N(C)C)c3ccc(cc3)N(C)C,-5.458398413,0,1,G1,373.544,5.0648,123.252,28,3,0,3,6,146,3,0,0,3,9.72,169.3796873,2.044352526,754.1475458
A-2013,digadolinium(3+) ion trioxalate,"InChI=1S/3C2H2O4.2Gd/c3*3-1(4)2(5)6;;/h3*(H,3,4)(H,5,6);;/q;;;2*+3/p-6",SQORATIMOBOFKR-UHFFFAOYSA-H,[Gd+3].[Gd+3].[O-]C(=O)C([O-])=O.[O-]C(=O)C([O-])=O.[O-]C(=O)C([O-])=O,-5.648400548,0.330205314,6,G5,578.554,-10.5414,30.042,20,12,0,14,0,112,0,0,0,0,240.78,172.6811203,-5.36E-08,281.085187
A-2015,yttrium,InChI=1S/Y,VWQVUPCCIRVNHF-UHFFFAOYSA-N,[Y],-4.834987719,0,1,G1,88.906,-0.0025,0,1,0,0,1,0,3,0,0,0,0,0,32.75214014,0,0
A-2016,"1,8-bis(phenylsulfanyl)-9,10-dihydroanthracene-9,10-dione",InChI=1S/C26H16O2S2/c27-25-19-13-7-15-21(29-17-9-3-1-4-10-17)23(19)26(28)24-20(25)14-8-16-22(24)30-18-11-5-2-6-12-18/h1-16H,CNRPDCKHCGUKDK-UHFFFAOYSA-N,O=C1c2cccc(Sc3ccccc3)c2C(=O)c4c(Sc5ccccc5)cccc14,-5.517335043,0,1,G1,424.546,6.7644,120.879,30,4,0,4,4,144,4,0,1,5,34.14,182.8960031,1.621491385,1167.974292
A-2017,"praseodymium(III,IV) oxide",InChI=1S/11O.6Pr/q11*-2;6*+3,HPZIIFVSYNLWNX-UHFFFAOYSA-N,[O--].[O--].[O--].[O--].[O--].[O--].[O--].[O--].[O--].[O--].[O--].[Pr+3].[Pr+3].[Pr+3].[Pr+3].[Pr+3].[Pr+3],-5.905407865,0,1,G1,1021.437,-1.3068,7.5515,17,0,0,17,0,88,0,0,0,0,313.5,298.3866418,0,15.92334549
A-2019,"4,4'-cyclohexane-1,1-diylbis(2-methylphenol)","InChI=1S/C20H24O2/c1-14-12-16(6-8-18(14)21)20(10-4-3-5-11-20)17-7-9-19(22)15(2)13-17/h6-9,12-13,21-22H,3-5,10-11H2,1-2H3",SVOBELCYOCEECO-UHFFFAOYSA-N,Cc1cc(ccc1O)C2(CCCCC2)c3ccc(O)c(C)c3,-5.371522306,0,1,G1,296.41,4.96484,89.5526,22,2,2,2,2,116,2,1,1,3,40.46,131.9906706,2.148016562,628.6017541
A-2022,calcium 3-hydroxy-4-[(E)-2-(4-methyl-2-sulfonatophenyl)diazen-1-yl]naphthalene-2-carboxylate,"InChI=1S/C18H14N2O6S.Ca/c1-10-6-7-14(15(8-10)27(24,25)26)19-20-16-12-5-3-2-4-11(12)9-13(17(16)21)18(22)23;/h2-9,19H,1H3,(H,22,23)(H,24,25,26);/q;+2/p-2/b20-16-;",WANIKCLUTOABTP-LRZQPWDCSA-L,[Ca++].Cc1ccc(N\N=C\2C(=O)C(=Cc3ccccc23)C([O-])=O)c(c1)[S]([O-])(=O)=O,-5.548642222,0.190105621,2,G3,424.447,0.05052,99.4889,28,8,1,10,4,138,2,0,1,3,138.79,190.2597185,2.80E-06,1138.514875
A-2025,"1,4-bis(2-ethylhexyl) (2E)-but-2-enedioate","InChI=1S/C20H36O4/c1-5-9-11-17(7-3)15-23-19(21)13-14-20(22)24-16-18(8-4)12-10-6-2/h13-14,17-18H,5-12,15-16H2,1-4H3/b14-13+",ROPXFXOUUANXRR-BUHFOSPRSA-N,CCCCC(CC)COC(=O)\C=C\C(=O)OCC(CC)CCCC,-5.456575257,0.962237628,2,G2,340.504,5.0618,97.67,24,4,0,4,14,140,0,0,0,0,52.6,147.5336828,4.039404236,328.6503493
A-2026,"2,2-dimethylpropane-1,3-diyl dibenzoate","InChI=1S/C19H20O4/c1-19(2,13-22-17(20)15-9-5-3-6-10-15)14-23-18(21)16-11-7-4-8-12-16/h3-12H,13-14H2,1-2H3",DYJIIMFHSZKBDY-UHFFFAOYSA-N,CC(C)(COC(=O)c1ccccc1)COC(=O)c2ccccc2,-5.422780359,0.009401782,2,G3,312.365,3.7266,87.23,23,4,0,4,6,120,2,0,0,2,52.6,135.5932268,1.82362674,590.0845348
A-2029,calcium bis(metaphosphate),"InChI=1S/Ca.2H3O3P/c;2*1-4(2)3/h;2*4H,(H2,1,2,3)/q+2;;/p-2",JBCDXVJTWRWCSR-UHFFFAOYSA-L,[Ca++].O[PH]([O-])=O.O[PH]([O-])=O,-5.253149755,0,1,G1,202.052,-2.9234,28.1946,9,4,2,9,0,52,0,0,0,0,120.72,82.42893374,-7.20E-08,69.05865003
A-2030,(ethoxymethoxy)cyclododecane,"InChI=1S/C15H30O2/c1-2-16-14-17-15-12-10-8-6-4-3-5-7-9-11-13-15/h15H,2-14H2,1H3",VQNUNMBDOKEZHS-UHFFFAOYSA-N,CCOCOC1CCCCCCCCCCC1,-5.335319968,0,1,G1,242.403,4.6703,72.153,17,2,0,2,4,102,0,1,1,1,18.46,107.0696999,2.170986572,147.0008094
A-2032,"2,6-dibromo-4-[2-(3,5-dibromo-4-hydroxyphenyl)propan-2-yl]phenol","InChI=1S/C15H12Br4O2/c1-15(2,7-3-9(16)13(20)10(17)4-7)8-5-11(18)14(21)12(19)6-8/h3-6,20-21H,1-2H3",VEORPZCZECFIRK-UHFFFAOYSA-N,CC(C)(c1cc(Br)c(O)c(Br)c1)c2cc(Br)c(O)c(Br)c2,-5.694106411,0.635897042,7,G4,543.875,6.4737,99.1416,21,2,2,6,2,112,2,0,0,2,40.46,156.6419816,2.614907029,605.3051848
A-2033,bis(3-methylbutyl) phthalate,"InChI=1S/C18H26O4/c1-13(2)9-11-21-17(19)15-7-5-6-8-16(15)18(20)22-12-10-14(3)4/h5-8,13-14H,9-12H2,1-4H3",JANBFCARANRIKJ-UHFFFAOYSA-N,CC(C)CCOC(=O)c1ccccc1C(=O)OCCC(C)C,-5.444898911,0,1,G1,306.402,4.0924,85.917,22,4,0,4,8,122,1,0,0,1,52.6,132.3608432,2.676311048,446.6154526
A-2035,zinc bis(diethyldithiocarbamate),"InChI=1S/2C5H11NS2.Zn/c2*1-3-6(4-2)5(7)8;/h2*3-4H2,1-2H3,(H,7,8);/q;;+2/p-2",RKQOSDAEEGPRER-UHFFFAOYSA-L,[Zn++].CCN(CC)C([S-])=S.CCN(CC)C([S-])=S,-5.533333117,0,1,G1,361.942,2.3175,85.768,17,4,0,7,4,96,0,0,0,0,6.48,140.4602504,-2.18E-07,184.4825786
A-2036,tetraphenyl m-phenylene bis(phosphate),"InChI=1S/C30H24O8P2/c31-39(33-25-14-5-1-6-15-25,34-26-16-7-2-8-17-26)37-29-22-13-23-30(24-29)38-40(32,35-27-18-9-3-10-19-27)36-28-20-11-4-12-21-28/h1-24H",OWICEWMBIBPFAH-UHFFFAOYSA-N,O=[P](Oc1ccccc1)(Oc2ccccc2)Oc3cccc(O[P](=O)(Oc4ccccc4)Oc5ccccc5)c3,-5.738072007,1.447812781,4,G4,574.462,8.9764,151.191,40,8,0,10,12,202,5,0,0,5,89.52,231.4402727,1.406034042,1391.507012
A-2037,9H-carbazole,"InChI=1S/C12H9N/c1-3-7-11-9(5-1)10-6-2-4-8-12(10)13-11/h1-8,13H",UJOBWOGCFQCDNV-UHFFFAOYSA-N,[nH]1c2ccccc2c3ccccc13,-5.21042762,0.128850356,3,G5,167.211,3.3211,55.8047,13,0,1,1,0,62,3,0,0,3,15.79,76.0038926,2.64243826,512.8841359
A-2039,"1,2-dicyclohexyl benzene-1,2-dicarboxylate","InChI=1S/C20H26O4/c21-19(23-15-9-3-1-4-10-15)17-13-7-8-14-18(17)20(22)24-16-11-5-2-6-12-16/h7-8,13-16H,1-6,9-12H2",VOWAEIGWURALJQ-UHFFFAOYSA-N,O=C(OC1CCCCC1)c2ccccc2C(=O)OC3CCCCC3,-5.512605542,0.297802771,2,G3,330.424,4.6656,91.019,24,4,0,4,4,130,1,2,2,3,52.6,143.0790651,1.665794884,517.7565101
A-2041,Prokan,"InChI=1S/C23H32O4/c1-14(24)23(27-15(2)25)12-9-20-18-6-5-16-13-17(26)7-10-21(16,3)19(18)8-11-22(20,23)4/h13,18-20H,5-12H2,1-4H3",VTHUYJIXSMGYOQ-UHFFFAOYSA-N,CC(=O)OC1(CCC2C3CCC4=CC(=O)CCC4(C)C3CCC12C)C(C)=O,-5.566810733,0,1,G1,372.505,4.4092,101.888,27,4,0,4,2,148,0,3,4,4,60.44,161.6531614,1.701801029,736.6603801
A-2042,"(9Z)-N,N-bis(2-hydroxyethyl)octadec-9-enamide","InChI=1S/C22H43NO3/c1-2-3-4-5-6-7-8-9-10-11-12-13-14-15-16-17-22(26)23(18-20-24)19-21-25/h9-10,24-25H,2-8,11-21H2,1H3/b10-9+",LPMBTLLQQJBUOO-MDZDMXLPSA-N,CCCCCCCC/C=C/CCCCCCCC(=O)N(CCO)CCO,-5.567720212,0,1,G1,369.59,4.8371,110.2036,26,3,2,4,19,154,0,0,0,0,60.77,161.2232557,3.393023563,325.3490496
A-2043,"1,3-diethyl 2-({4-[3-ethoxy-2-(ethoxycarbonyl)-3-oxoprop-1-en-1-yl]phenyl}methylidene)propanedioate","InChI=1S/C22H26O8/c1-5-27-19(23)17(20(24)28-6-2)13-15-9-11-16(12-10-15)14-18(21(25)29-7-3)22(26)30-8-4/h9-14H,5-8H2,1-4H3",YUOKTNQLLUHUEK-UHFFFAOYSA-N,CCOC(=O)C(=Cc1ccc(cc1)C=C(C(=O)OCC)C(=O)OCC)C(=O)OCC,-5.621635269,0,1,G1,418.442,2.7058,108.928,30,8,0,8,10,162,1,0,0,1,105.2,174.9915402,3.216129253,709.0442171
A-2045,2-phenylethyl (2E)-3-phenylprop-2-enoate,"InChI=1S/C17H16O2/c18-17(12-11-15-7-3-1-4-8-15)19-14-13-16-9-5-2-6-10-16/h1-12H,13-14H2/b12-11+",MJQVZIANGRDJBT-VAWYXSNFSA-N,O=C(OCCc1ccccc1)/C=C/c2ccccc2,-5.401939627,0.140749156,2,G3,252.313,3.4857,76.581,19,2,0,2,5,96,2,0,0,2,26.3,112.8986722,1.746785935,529.7032275
A-2046,N-(2-hydroxyethyl)octadecanamide,"InChI=1S/C20H41NO2/c1-2-3-4-5-6-7-8-9-10-11-12-13-14-15-16-17-20(23)21-18-19-22/h22H,2-19H2,1H3,(H,21,23)",OTGQIQQTPXJQRG-UHFFFAOYSA-N,CCCCCCCCCCCCCCCCCC(=O)NCCO,-5.515281581,0,1,G1,327.553,5.3564,99.6415,23,2,2,3,18,138,0,0,0,0,49.33,144.1787692,3.036229912,243.7961726
A-2047,N-(4-chlorophenyl)-3-hydroxy-2-naphthamide,"InChI=1S/C17H12ClNO2/c18-13-5-7-14(8-6-13)19-17(21)15-9-11-3-1-2-4-12(11)10-16(15)20/h1-10,20H,(H,19,21)",OHAXNCGNVGGWSO-UHFFFAOYSA-N,Oc1cc2ccccc2cc1C(=O)Nc3ccc(Cl)cc3,-5.473838643,0,1,G1,297.741,4.4511,85.018,21,2,2,4,2,104,3,0,0,3,49.33,126.3439882,1.934257948,812.6379856
A-2049,"bis(1,2,2,6,6-pentamethylpiperidin-4-yl) 2-butyl-2-[(3,5-di-tert-butyl-4-hydroxyphenyl)methyl]propanedioate","InChI=1S/C42H72N2O5/c1-18-19-20-42(34(46)48-29-24-38(8,9)43(16)39(10,11)25-29,35(47)49-30-26-40(12,13)44(17)41(14,15)27-30)23-28-21-31(36(2,3)4)33(45)32(22-28)37(5,6)7/h21-22,29-30,45H,18-20,23-27H2,1-17H3",FLPKSBDJMLUTEX-UHFFFAOYSA-N,CCCCC(Cc1cc(c(O)c(c1)C(C)(C)C)C(C)(C)C)(C(=O)OC2CC(C)(C)N(C)C(C)(C)C2)C(=O)OC3CC(C)(C)N(C)C(C)(C)C3,-5.835720369,0.150514998,2,G3,685.047,9.0955,201.2388,49,7,1,7,9,280,1,2,2,3,79.31,299.4216927,2.199899391,1232.755319
A-2053,2-bromo-N-[4-chloro-2-(2-fluorobenzoyl)phenyl]acetamide,"InChI=1S/C15H10BrClFNO2/c16-8-14(20)19-13-6-5-9(17)7-11(13)15(21)10-3-1-2-4-12(10)18/h1-7H,8H2,(H,19,20)",WUZSFIKFFXBHMB-UHFFFAOYSA-N,Fc1ccccc1C(=O)c2cc(Cl)ccc2NC(=O)CBr,-5.569345786,0.007519087,2,G3,370.605,4.0435,83.7082,21,2,1,6,4,108,2,0,0,2,46.17,133.7925793,2.468304659,705.8230149
A-2055,Cedryl acetate,"InChI=1S/C17H28O2/c1-11-6-7-13-15(3,4)14-10-17(11,13)9-8-16(14,5)19-12(2)18/h11,13-14H,6-10H2,1-5H3/t11-,13+,14?,16?,17?/m1/s1",HQKQRXZEXPXXIG-GXTNNVKYSA-N,C[C@@H]1CC[C@H]2C(C)(C)C3CC12CCC3(C)OC(C)=O,-5.426641039,0,1,G1,264.409,4.1806,75.614,19,2,0,2,1,108,0,3,3,3,26.3,116.8358987,1.986771714,413.4851275
A-2057,12-hydroxyoctadecanoic acid,"InChI=1S/C18H36O3/c1-2-3-4-11-14-17(19)15-12-9-7-5-6-8-10-13-16-18(20)21/h17,19H,2-16H2,1H3,(H,20,21)",ULQISTXYYBZJSJ-UHFFFAOYSA-N,CCCCCCC(O)CCCCCCCCCCC(O)=O,-5.488370089,0,1,G1,300.483,5.3033,88.5716,21,2,2,3,16,126,0,0,0,0,57.53,130.6932566,3.119176987,228.5033284
A-2060,"Bisbenzimidazo[2,1-b:1',2'-j]benzo[lmn][3,8]phenanthroline-6,9-dione",InChI=1S/C26H12N4O2/c31-25-15-11-12-16-22-14(24-28-18-6-2-4-8-20(18)30(24)26(16)32)10-9-13(21(15)22)23-27-17-5-1-3-7-19(17)29(23)25/h1-12H,YMEPVPIIHONYLV-UHFFFAOYSA-N,O=C1n2c3ccccc3nc2c4ccc5c6nc7ccccc7n6C(=O)c8ccc1c4c58,-5.633055848,1.062469368,2,G2,412.408,4.344,126.384,32,6,0,6,0,148,8,0,0,8,68.74,177.8174116,1.735087826,2033.033306
A-2062,barium 3-hydroxy-4-[(4-methyl-2-sulphonatophenyl)azo]-2-naphthoate,"InChI=1S/C18H14N2O6S.Ba/c1-10-6-7-14(15(8-10)27(24,25)26)19-20-16-12-5-3-2-4-11(12)9-13(17(16)21)18(22)23;/h2-9,19H,1H3,(H,22,23)(H,24,25,26);/q;+2/p-2/b20-16-;",LPMJODPDQRKJEH-LRZQPWDCSA-L,[Ba++].Cc1ccc(N\N=C\2C(=O)C(=Cc3ccccc23)C([O-])=O)c(c1)[S]([O-])(=O)=O,-5.735147106,0.679510971,2,G2,521.697,0.05052,99.4889,28,8,1,10,4,138,2,0,1,3,138.79,200.720091,2.80E-06,1138.514875
A-2063,4-{2-[4-(cyanooxy)phenyl]propan-2-yl}phenyl cyanate,"InChI=1S/C17H14N2O2/c1-17(2,13-3-7-15(8-4-13)20-11-18)14-5-9-16(10-6-14)21-12-19/h3-10H,1-2H3",AHZMUXQJTGRNHT-UHFFFAOYSA-N,CC(C)(c1ccc(OC#N)cc1)c2ccc(OC#N)cc2,-5.469558378,0,1,G1,278.311,3.73226,77.494,21,4,0,4,4,104,2,0,0,2,66.04,123.3254577,2.278812873,628.0553465
A-2065,lauronitrile,"InChI=1S/C12H23N/c1-2-3-4-5-6-7-8-9-10-11-12-13/h2-11H2,1H3",VXCUURYYWGCLIH-UHFFFAOYSA-N,CCCCCCCCCCCC#N,-5.289969947,0,1,G1,181.323,4.43088,57.457,13,1,0,1,9,76,0,0,0,0,23.79,83.14619397,2.803610223,123.5763913
A-2073,1-chloro-4-(4-chlorobenzenesulfonyl)benzene,"InChI=1S/C12H8Cl2O2S/c13-9-1-5-11(6-2-9)17(15,16)12-7-3-10(14)4-8-12/h1-8H",GPAPPPVRLPGFEQ-UHFFFAOYSA-N,Clc1ccc(cc1)[S](=O)(=O)c2ccc(Cl)cc2,-5.52363608,0,1,G1,287.167,3.8262,68.3558,17,2,0,5,2,88,2,0,0,2,34.14,109.7204282,2.496128967,565.0601342