ID,Name,InChI,InChIKey,SMILES,Solubility,SD,Ocurrences,Group,MolWt,MolLogP,MolMR,HeavyAtomCount,NumHAcceptors,NumHDonors,NumHeteroatoms,NumRotatableBonds,NumValenceElectrons,NumAromaticRings,NumSaturatedRings,NumAliphaticRings,RingCount,TPSA,LabuteASA,BalabanJ,BertzCT
A-2077,"1-N,4-N-bis(5-methylhexan-2-yl)benzene-1,4-diamine","InChI=1S/C20H36N2/c1-15(2)7-9-17(5)21-19-11-13-20(14-12-19)22-18(6)10-8-16(3)4/h11-18,21-22H,7-10H2,1-6H3",ZJNLYGOUHDJHMG-UHFFFAOYSA-N,CC(C)CCC(C)Nc1ccc(NC(C)CCC(C)C)cc1,-5.575133655,0.706867138,2,G2,304.522,6.1598,100.7554,22,2,2,2,10,126,1,0,0,1,24.06,137.6403171,2.386947201,355.6732005
A-2079,2-cyclododecylpropan-1-ol,"InChI=1S/C15H30O/c1-14(13-16)15-11-9-7-5-3-2-4-6-8-10-12-15/h14-16H,2-13H2,1H3",WKHTUDYDJUHYMK-UHFFFAOYSA-N,CC(CO)C1CCCCCCCCCCC1,-5.451794109,0,1,G1,226.404,4.5357,70.5268,16,1,1,1,2,96,0,1,1,1,20.23,101.6368432,2.297380988,143.5139411
A-2083,methyl undec-10-enoate,"InChI=1S/C12H22O2/c1-3-4-5-6-7-8-9-10-11-12(13)14-2/h3H,1,4-11H2,2H3",KISVAASFGZJBCY-UHFFFAOYSA-N,COC(=O)CCCCCCCCC=C,-5.397515352,0,1,G1,198.306,3.4662,59.149,14,2,0,2,9,82,0,0,0,0,26.3,87.33907858,2.984750351,152.400719
A-2084,"dialuminium tris[2-(2,4,5,7-tetrabromo-6-oxido-3-oxoxanthen-9-yl)-3,4,5,6-tetrachlorobenzoate]","InChI=1S/3C20H4Br4Cl4O5.2Al/c3*21-5-1-3-7(8-9(20(31)32)13(26)15(28)14(27)12(8)25)4-2-6(22)17(30)11(24)19(4)33-18(3)10(23)16(5)29;;/h3*1-2,29H,(H,31,32);;/q;;;2*+3/p-6",SYHCUZIBEFBVNF-UHFFFAOYSA-H,[Al+3].[Al+3].[O-]C(=O)c1c(Cl)c(Cl)c(Cl)c(Cl)c1C2=C3C=C(Br)C(=O)C(=C3Oc4c(Br)c([O-])c(Br)cc24)Br.[O-]C(=O)c5c(Cl)c(Cl)c(Cl)c(Cl)c5C6=C7C=C(Br)C(=O)C(=C7Oc8c(Br)c([O-])c(Br)cc68)Br.[O-]C(=O)c9c(Cl)c(Cl)c(Cl)c(Cl)c9C%10=C%11C=C(Br)C(=O)C(=C%11Oc%12c(Br)c([O-])c(Br)cc%10%12)Br,-6.490069011,0,1,G1,2404.941,22.2349,428.9835,101,15,0,41,6,510,6,0,6,12,280.2,744.9224912,1.91E-07,5273.580569
A-2085,[(oxobismuthanyl)oxy]bismuthanone,InChI=1S/2Bi.3O/q2*+3;3*-2,TYIXMATWDRGMPF-UHFFFAOYSA-N,[O--].[O--].[O--].[Bi+3].[Bi+3],-5.777924822,1.021704799,3,G4,465.957,-1.118,13.5675,5,0,0,5,0,28,0,0,0,0,85.5,68.30725323,0,4.854752972
A-2086,Estrone,"InChI=1S/C18H22O2/c1-18-9-8-14-13-5-3-12(19)10-11(13)2-4-15(14)16(18)6-7-17(18)20/h3,5,10,14-16,19H,2,4,6-9H2,1H3/t14-,15-,16+,18+/m1/s1",DNXHEGUUPJUMQT-CBZIJGRNSA-N,C[C@]12CC[C@H]3[C@@H](CCc4cc(O)ccc34)[C@@H]1CCC2=O,-5.551148121,0.798174061,2,G2,270.372,3.8174,77.7308,20,2,1,2,0,106,1,2,3,4,37.3,119.7489709,1.728441257,576.7809963
A-2087,"2,6-di-tert-butyl-4-methylphenol","InChI=1S/C15H24O/c1-10-8-11(14(2,3)4)13(16)12(9-10)15(5,6)7/h8-9,16H,1-7H3",NLZUEZXRPGMBCV-UHFFFAOYSA-N,Cc1cc(c(O)c(c1)C(C)(C)C)C(C)(C)C,-5.462311288,0.159617264,5,G5,220.356,4.29562,70.2438,16,1,1,1,0,90,1,0,0,1,20.23,99.5101159,3.507848338,353.8715828
A-2088,"3,3,4,4,5,5,6,6,7,7,8,8,8-tridecafluorooctyl prop-2-enoate 3,3,4,4,5,5,6,6,7,7,8,8,9,9,10,10,10-heptadecafluorodecyl prop-2-enoate 3,3,4,4,5,5,6,6,7,7,8,8,9,9,10,10,11,11,12,12,12-henicosafluorododecyl prop-2-enoate 3,3,4,4,5,5,6,6,7,7,8,8,9,9,10,10,11,11,12,12,13,13,14,14,14-pentacosafluorotetradecyl prop-2-enoate","InChI=1S/C17H7F25O2.C15H7F21O2.C13H7F17O2.C11H7F13O2/c1-2-5(43)44-4-3-6(18,19)7(20,21)8(22,23)9(24,25)10(26,27)11(28,29)12(30,31)13(32,33)14(34,35)15(36,37)16(38,39)17(40,41)42;1-2-5(37)38-4-3-6(16,17)7(18,19)8(20,21)9(22,23)10(24,25)11(26,27)12(28,29)13(30,31)14(32,33)15(34,35)36;1-2-5(31)32-4-3-6(14,15)7(16,17)8(18,19)9(20,21)10(22,23)11(24,25)12(26,27)13(28,29)30;1-2-5(25)26-4-3-6(12,13)7(14,15)8(16,17)9(18,19)10(20,21)11(22,23)24/h2H,1,3-4H2;2H,1,3-4H2;2H,1,3-4H2;2H,1,3-4H2",HXKIEMJEEMWSAX-UHFFFAOYSA-N,FC(F)(F)C(F)(F)C(F)(F)C(F)(F)C(F)(F)C(F)(F)CCOC(=O)C=C.FC(F)(F)C(F)(F)C(F)(F)C(F)(F)C(F)(F)C(F)(F)C(F)(F)C(F)(F)CCOC(=O)C=C.FC(F)(F)C(F)(F)C(F)(F)C(F)(F)C(F)(F)C(F)(F)C(F)(F)C(F)(F)C(F)(F)C(F)(F)CCOC(=O)C=C.FC(F)(F)C(F)(F)C(F)(F)C(F)(F)C(F)(F)C(F)(F)C(F)(F)C(F)(F)C(F)(F)C(F)(F)C(F)(F)C(F)(F)CCOC(=O)C=C,-6.481477027,0,1,G1,2272.68,27.0016,285.616,140,8,0,84,44,832,0,0,0,0,105.2,712.7511086,-8.96E-07,4231.446251
A-2089,"2,4,6-tris(butan-2-yl)phenol","InChI=1S/C18H30O/c1-7-12(4)15-10-16(13(5)8-2)18(19)17(11-15)14(6)9-3/h10-14,19H,7-9H2,1-6H3",LAVMWOGIDKQCDK-UHFFFAOYSA-N,CCC(C)c1cc(C(C)CC)c(O)c(c1)C(C)CC,-5.549793345,0.585130858,2,G2,262.437,5.9327,84.2248,19,1,1,1,6,108,1,0,0,1,20.23,118.6049422,3.374419947,377.1464645
A-2091,N-phenylnaphthalen-2-amine,"InChI=1S/C16H13N/c1-2-8-15(9-3-1)17-16-11-10-13-6-4-5-7-14(13)12-16/h1-12,17H",KEQFTVQCIQJIQW-UHFFFAOYSA-N,N(c1ccccc1)c2ccc3ccccc3c2,-5.495914846,0,1,G1,219.287,4.5834,73.6727,17,1,1,1,2,82,3,0,0,3,12.03,100.720024,1.961246718,629.1061252
A-2093,oxoyttrium,InChI=1S/O.Y,APUGIHICMSAKGR-UHFFFAOYSA-N,O=[Y],-5.175698148,0,1,G1,104.905,-0.1213,0.6865,2,1,0,2,0,9,0,0,0,0,17.07,33.10219234,2,2
A-2094,yttrium oxide,InChI=1S/3O.2Y/q3*-2;2*+3,RUDFQVOCFDJEEF-UHFFFAOYSA-N,[O--].[O--].[O--].[Y+3].[Y+3],-5.508643208,0,1,G1,225.809,-0.3614,2.0595,5,0,0,5,0,24,0,0,0,0,85.5,80.5780628,0,4.854752972
A-2095,"2,6,10-trimethylundec-9-enal","InChI=1S/C14H26O/c1-12(2)7-5-8-13(3)9-6-10-14(4)11-15/h7,11,13-14H,5-6,8-10H2,1-4H3",UEGBWDUVDAKUGA-UHFFFAOYSA-N,CC(CCCC(C)C=O)CCC=C(C)C,-5.496890424,0,1,G1,210.361,4.3742,66.908,15,1,0,1,8,88,0,0,0,0,17.07,94.95541758,3.446713604,189.5153812
A-2096,"N-(1,4-dimethylpentyl)-N'-phenylbenzene-1,4-diamine","InChI=1S/C19H26N2/c1-15(2)9-10-16(3)20-18-11-13-19(14-12-18)21-17-7-5-4-6-8-17/h4-8,11-16,20-21H,9-10H2,1-3H3",UHJVLUYSDYOULM-UHFFFAOYSA-N,CC(C)CCC(C)Nc1ccc(Nc2ccccc2)cc1,-5.624837561,0,1,G1,282.431,5.6668,93.3234,21,2,2,2,7,112,2,0,0,2,24.06,128.1428165,1.868168331,517.0224341
A-2097,(5Z)-cyclohexadec-5-en-1-one,"InChI=1S/C16H28O/c17-16-14-12-10-8-6-4-2-1-3-5-7-9-11-13-15-16/h6,8H,1-5,7,9-15H2/b8-6-",ABRIMXGLNHCLIP-VURMDHGXSA-N,O=C1CCCCCCCCCC\C=C/CCC1,-5.560732278,0.24405832,2,G3,236.399,5.1966,74.168,17,1,0,1,0,98,0,0,1,1,17.07,106.6794707,2.187739377,217.5650683
A-2098,"17-hydroxy-3-methoxyestra-2,5(10)-diene-17-carbonitrile","InChI=1S/C20H27NO2/c1-19-9-7-16-15-6-4-14(23-2)11-13(15)3-5-17(16)18(19)8-10-20(19,22)12-21/h4,16-18,22H,3,5-11H2,1-2H3",MEEGGHJZTZFSBQ-UHFFFAOYSA-N,COC1=CCC2=C(CCC3C2CCC4(C)C3CCC4(O)C#N)C1,-5.683242448,0,1,G1,313.441,4.09808,88.1938,23,3,1,3,1,124,0,2,4,4,53.25,138.5709792,1.627883187,628.0431566
A-2099,"Dodecahydro-3,8,8,11a-tetramethyl-5H-3,5a-epoxynaphth(2,1-c)oxepin","InChI=1S/C18H30O2/c1-15(2)8-5-9-16(3)13(15)7-11-18-12-19-17(4,20-18)10-6-14(16)18/h13-14H,5-12H2,1-4H3",PHNCACYNYORRNS-UHFFFAOYSA-N,CC1(C)CCCC2(C)C1CCC34COC(C)(CCC23)O4,-5.645384837,0,1,G1,278.436,4.5246,79.36,20,2,0,2,0,114,0,4,4,4,18.46,123.1470328,1.728375771,431.1341595
A-2100,1-methyl-4-(propan-2-yl)cyclohexane,"InChI=1S/C10H20/c1-8(2)10-6-4-9(3)5-7-10/h8-10H,4-7H2,1-3H3",CFJYNSNXFXLKNS-UHFFFAOYSA-N,CC1CCC(CC1)C(C)C,-5.354573108,0.172613446,2,G3,140.27,3.4687,45.96,10,0,0,0,1,60,0,1,1,1,0,65.0178989,2.259902596,86.21143267
A-2101,barium(2+) ion bis(5-chloro-2-[(E)-2-(2-hydroxynaphthalen-1-yl)diazen-1-yl]-4-methylbenzene-1-sulfonate),"InChI=1S/2C17H13ClN2O4S.Ba/c2*1-10-8-14(16(9-13(10)18)25(22,23)24)19-20-17-12-5-3-2-4-11(12)6-7-15(17)21;/h2*2-9,19H,1H3,(H,22,23,24);/q;;+2/p-2/b2*20-17-;",JNIGYQOBELCEIZ-MAKDUZDQSA-L,[Ba++].Cc1cc(N\N=C\2C(=O)C=Cc3ccccc23)c(cc1Cl)[S]([O-])(=O)=O.Cc4cc(N\N=C\5C(=O)C=Cc6ccccc56)c(cc4Cl)[S]([O-])(=O)=O,-6.156487599,0.907126193,5,G4,888.954,5.54844,195.3438,51,12,2,17,6,256,4,0,2,6,197.32,343.4607003,2.24E-07,2261.317943
A-2104,(2R)-heptan-2-yl 2-[(5-chloroquinolin-8-yl)oxy]acetate (2S)-heptan-2-yl 2-[(5-chloroquinolin-8-yl)oxy]acetate,"InChI=1S/C18H22ClNO3/c1-3-4-5-7-13(2)23-17(21)12-22-16-10-9-15(19)14-8-6-11-20-18(14)16/h6,8-11,13H,3-5,7,12H2,1-2H3",COYBRKAVBMYYSF-UHFFFAOYSA-N,CCCCCC(C)OC(=O)COc1ccc(Cl)c2cccnc12,-5.747969532,0.085987163,4,G5,335.831,4.779,91.944,23,4,0,5,8,124,2,0,0,2,48.42,141.3090734,1.908833852,659.7567985
A-2106,2-[(2-hydroxyethyl)(octadecyl)amino]ethan-1-ol,"InChI=1S/C22H47NO2/c1-2-3-4-5-6-7-8-9-10-11-12-13-14-15-16-17-18-23(19-21-24)20-22-25/h24-25H,2-22H2,1H3",NDLNTMNRNCENRZ-UHFFFAOYSA-N,CCCCCCCCCCCCCCCCCCN(CCO)CCO,-5.775274192,0,1,G1,357.623,5.5345,110.1576,25,3,2,3,21,152,0,0,0,0,43.7,157.7513366,3.132760794,230.0671092
A-2110,(10Z)-1-oxacycloheptadec-10-en-2-one,"InChI=1S/C16H28O2/c17-16-14-12-10-8-6-4-2-1-3-5-7-9-11-13-15-18-16/h1,3H,2,4-15H2/b3-1-",QILMAYXCYBTEDM-IWQZZHSRSA-N,O=C1CCCCCCC\C=C/CCCCCCO1,-5.629397555,0,1,G1,252.398,4.7806,75.503,18,2,0,2,0,104,0,0,1,1,26.3,111.7930159,2.168809347,211.2514595
A-2113,"methyl 2-amino-4-[(2,5-dichlorophenyl)carbamoyl]benzoate","InChI=1S/C15H12Cl2N2O3/c1-22-15(21)10-4-3-9(7-13(10)18)19-14(20)11-6-8(16)2-5-12(11)17/h2-7H,18H2,1H3,(H,19,20)",PDWBHZYCNIOXCB-UHFFFAOYSA-N,COC(=O)c1ccc(NC(=O)c2cc(Cl)ccc2Cl)cc1N,-5.790064986,0,1,G1,339.178,3.6145,86.6091,22,4,2,7,3,114,2,0,0,2,81.42,136.5161984,2.236680792,747.5625731
A-2115,1-{[3-(triethoxysilyl)propyl]sulfanyl}octan-1-one,"InChI=1S/C17H36O4SSi/c1-5-9-10-11-12-14-17(18)22-15-13-16-23(19-6-2,20-7-3)21-8-4/h5-16H2,1-4H3",JPPLPDOXWBVPCW-UHFFFAOYSA-N,CCCCCCCC(=O)SCCC[Si](OCC)(OCC)OCC,-5.832680461,1.358996621,2,G2,364.624,5.0452,100.897,23,5,0,6,16,138,0,0,0,0,44.76,147.9545655,3.925947455,272.7473823
A-2117,"1,1':3',1''-terphenyl-2'-ol","InChI=1S/C18H14O/c19-18-16(14-8-3-1-4-9-14)12-7-13-17(18)15-10-5-2-6-11-15/h1-13,19H",ATGFTMUSEPZNJD-UHFFFAOYSA-N,Oc1c(cccc1c2ccccc2)c3ccccc3,-5.683910105,0,1,G1,246.309,4.7262,78.9788,19,1,1,1,2,92,3,0,0,3,20.23,112.3398253,2.152988984,614.8173163
A-2118,"(5E)-5-[(4-chlorophenyl)methylidene]-2,2-dimethylcyclopentan-1-one","InChI=1S/C14H15ClO/c1-14(2)8-7-11(13(14)16)9-10-3-5-12(15)6-4-10/h3-6,9H,7-8H2,1-2H3/b11-9+",DHZKFHRKOKWCKA-PKNBQFBNSA-N,CC1(C)CC\C(=C/c2ccc(Cl)cc2)C1=O,-5.671591194,0,1,G1,234.726,4.1125,67.451,16,1,0,2,1,84,1,1,1,2,17.07,101.1202942,2.264179736,440.3080752
A-2119,"2-{[3,3-bis(3-tert-butyl-4-hydroxyphenyl)butanoyl]oxy}ethyl 3,3-bis(3-tert-butyl-4-hydroxyphenyl)butanoate","InChI=1S/C50H66O8/c1-45(2,3)35-25-31(15-19-39(35)51)49(13,32-16-20-40(52)36(26-32)46(4,5)6)29-43(55)57-23-24-58-44(56)30-50(14,33-17-21-41(53)37(27-33)47(7,8)9)34-18-22-42(54)38(28-34)48(10,11)12/h15-22,25-28,51-54H,23-24,29-30H2,1-14H3",JOWXNCPELQZFHF-UHFFFAOYSA-N,CC(C)(C)c1cc(ccc1O)C(C)(CC(=O)OCCOC(=O)CC(C)(c2ccc(O)c(c2)C(C)(C)C)c3ccc(O)c(c3)C(C)(C)C)c4ccc(O)c(c4)C(C)(C)C,-6.201435362,0,1,G1,795.07,10.8778,231.2872,58,8,4,8,11,314,4,0,0,4,133.52,345.8182504,1.595900314,1852.792405
A-2122,"(1-methylethyl)-1,1'-biphenyl","InChI=1S/C15H16/c1-12(2)13-8-10-15(11-9-13)14-6-4-3-5-7-14/h3-12H,1-2H3",KWSHGRJUSUJPQD-UHFFFAOYSA-N,CC(C)c1ccc(cc1)c2ccccc2,-5.609857774,0.139142192,3,G5,196.293,4.477,65.967,15,0,0,0,2,76,2,0,0,2,0,91.58332367,2.321248318,409.5511153
A-2126,"4-[(4-amino-3,5-diethylphenyl)methyl]-2,6-diethylaniline","InChI=1S/C21H30N2/c1-5-16-10-14(11-17(6-2)20(16)22)9-15-12-18(7-3)21(23)19(8-4)13-15/h10-13H,5-9,22-23H2,1-4H3",NWIVYGKSHSJHEF-UHFFFAOYSA-N,CCc1cc(Cc2cc(CC)c(N)c(CC)c2)cc(CC)c1N,-5.848587947,0,1,G1,310.485,4.6914,102.0268,23,2,2,2,6,124,2,0,0,2,52.04,140.4527577,2.425750084,576.7263045
A-2129,2-[4-(2-{4-[2-(prop-2-enoyloxy)ethoxy]phenyl}propan-2-yl)phenoxy]ethyl prop-2-enoate,"InChI=1S/C25H28O6/c1-5-23(26)30-17-15-28-21-11-7-19(8-12-21)25(3,4)20-9-13-22(14-10-20)29-16-18-31-24(27)6-2/h5-14H,1-2,15-18H2,3-4H3",XWUNIDGEMNBBAQ-UHFFFAOYSA-N,CC(C)(c1ccc(OCCOC(=O)C=C)cc1)c2ccc(OCCOC(=O)C=C)cc2,-5.999481603,0,1,G1,424.493,4.2285,118.314,31,6,0,6,12,164,2,0,0,2,71.06,182.6307639,1.897749061,807.7331652
A-2131,"Benzenamine, N-phenyl-, styrenated","InChI=1S/C28H27N/c1-21(23-9-5-3-6-10-23)25-13-17-27(18-14-25)29-28-19-15-26(16-20-28)22(2)24-11-7-4-8-12-24/h3-22,29H,1-2H3",BRWSDEFCJGIRLV-UHFFFAOYSA-N,CC(c1ccccc1)c2ccc(Nc3ccc(cc3)C(C)c4ccccc4)cc2,-5.964168762,0,1,G1,377.531,7.7338,124.0847,29,1,1,1,6,144,4,0,0,4,12.03,173.6123164,1.428791986,932.1655383
A-2132,"1,3-dimethyl-5-propylbenzene; 6,6,22,22-tetrabutyloctapentacontane; anthracene; phenylbenzene; tetraheptacontane","InChI=1S/2C74H150.C14H10.C12H10.C11H16/c1-7-13-19-20-21-22-23-24-25-26-27-28-29-30-31-32-33-34-35-36-37-38-39-40-41-42-43-44-46-49-53-56-59-63-71-74(67-17-11-5,68-18-12-6)72-64-60-57-54-51-48-45-47-50-52-55-58-62-70-73(65-15-9-3,66-16-10-4)69-61-14-8-2;1-3-5-7-9-11-13-15-17-19-21-23-25-27-29-31-33-35-37-39-41-43-45-47-49-51-53-55-57-59-61-63-65-67-69-71-73-74-72-70-68-66-64-62-60-58-56-54-52-50-48-46-44-42-40-38-36-34-32-30-28-26-24-22-20-18-16-14-12-10-8-6-4-2;1-2-6-12-10-14-8-4-3-7-13(14)9-11(12)5-1;1-3-7-11(8-4-1)12-9-5-2-6-10-12;1-4-5-11-7-9(2)6-10(3)8-11/h7-72H2,1-6H3;3-74H2,1-2H3;1-10H;1-10H;6-8H,4-5H2,1-3H3",UPDSRWJBVPKSST-UHFFFAOYSA-N,CCCCCCCCCCCCCCCCCCCCCCCCCCCCCCCCCCCCCCCCCCCCCCCCCCCCCCCCCCCCCCCCCCCCCCCCCC.CCCCCCCCCCCCCCCCCCCCCCCCCCCCCCCCCCCCC(CCCC)(CCCC)CCCCCCCCCCCCCCCC(CCCC)(CCCC)CCCCC.CCCc1cc(C)cc(C)c1.c2ccc(cc2)c3ccccc3.c4ccc5cc6ccccc6cc5c4,-6.806302611,0.597257171,2,G2,2560.723,68.54114,850.647,185,0,0,0,141,1076,6,0,0,6,0,1165.825483,9.59E-07,3977.445042
A-2135,"2,6-diethylanthracene; 9,9-dipropylicosane; tricosane","InChI=1S/C26H54.C23H48.C18H18/c1-5-9-11-13-15-16-17-19-21-25-26(22-7-3,23-8-4)24-20-18-14-12-10-6-2;1-3-5-7-9-11-13-15-17-19-21-23-22-20-18-16-14-12-10-8-6-4-2;1-3-13-5-7-15-12-18-10-14(4-2)6-8-16(18)11-17(15)9-13/h5-25H2,1-4H3;3-23H2,1-2H3;5-12H,3-4H2,1-2H3",XIJNZQQUHMHCIW-UHFFFAOYSA-N,CCCCCCCCCCCCCCCCCCCCCCC.CCCCCCCCCCCC(CCC)(CCC)CCCCCCCC.CCc1ccc2cc3cc(CC)ccc3cc2c1,-6.364408865,0.597257171,2,G2,925.697,24.5806,310.601,67,0,0,0,43,388,3,0,0,3,0,422.1483266,5.09E-07,1372.16984
A-2136,2-ethylhexyl benzoate,"InChI=1S/C15H22O2/c1-3-5-9-13(4-2)12-17-15(16)14-10-7-6-8-11-14/h6-8,10-11,13H,3-5,9,12H2,1-2H3",UADWUILHKRXHMM-UHFFFAOYSA-N,CCCCC(CC)COC(=O)c1ccccc1,-5.767784581,0,1,G1,234.339,4.0598,70.0305,17,2,0,2,7,94,1,0,0,1,26.3,103.9909495,2.362420165,318.9535215
A-2137,"3,3,5-trimethylcyclohexyl 2-hydroxybenzoate","InChI=1S/C16H22O3/c1-11-8-12(10-16(2,3)9-11)19-15(18)13-6-4-5-7-14(13)17/h4-7,11-12,17H,8-10H2,1-3H3",WSSJONWNBBTCMG-UHFFFAOYSA-N,CC1CC(CC(C)(C)C1)OC(=O)c2ccccc2O,-5.816819422,0,1,G1,262.349,3.7638,74.1063,19,3,1,3,2,104,1,1,1,2,46.53,114.1442942,2.050821054,464.8167794
A-2138,"5,9-diethylhexadecane; anthracene; icosane","InChI=1S/2C20H42.C14H10/c1-5-9-11-12-13-16-20(8-4)18-14-17-19(7-3)15-10-6-2;1-3-5-7-9-11-13-15-17-19-20-18-16-14-12-10-8-6-4-2;1-2-6-12-10-14-8-4-3-7-13(14)9-11(12)5-1/h19-20H,5-18H2,1-4H3;3-20H2,1-2H3;1-10H",KESSGIXNZDGGFC-UHFFFAOYSA-N,CCCCCCCCCCCCCCCCCCCC.CCCCCCCC(CC)CCCC(CC)CCCC.c1ccc2cc3ccccc3cc2c1,-6.269131018,0.597257171,2,G2,743.346,19.8008,250.222,54,0,0,0,32,310,3,0,0,3,0,339.4040791,4.10E-07,1051.848201
A-2140,"methyl 4-[(2,5-dichlorophenyl)carbamoyl]-2-nitrobenzoate","InChI=1S/C15H10Cl2N2O5/c1-24-15(21)10-4-2-8(6-13(10)19(22)23)14(20)18-12-7-9(16)3-5-11(12)17/h2-7H,1H3,(H,18,20)",BVBSCSYCFCDVEU-UHFFFAOYSA-N,COC(=O)c1ccc(cc1[N+]([O-])=O)C(=O)Nc2cc(Cl)ccc2Cl,-5.965154646,0,1,G1,369.16,3.9405,88.8511,24,5,1,9,4,124,2,0,0,2,98.54,145.8292835,2.361359742,838.6092784
A-2142,"3,7-dimethyloct-6-en-1-yl (2E)-2-methylbut-2-enoate","InChI=1S/C15H26O2/c1-6-14(5)15(16)17-11-10-13(4)9-7-8-12(2)3/h6,8,13H,7,9-11H2,1-5H3/b14-6+",UCFQYMKLDPWFHZ-MKMNVTDBSA-N,C\C=C(/C)C(=O)OCCC(C)CCC=C(C)C,-5.791792689,0,1,G1,238.371,4.2684,72.836,17,2,0,2,7,98,0,0,0,0,26.3,105.7443019,3.679636507,283.2969451
A-2143,"3,3,4,4,5,5,6,6,7,7,8,8,8-tridecafluorooctyl 2-methylprop-2-enoate","InChI=1S/C12H9F13O2/c1-5(2)6(26)27-4-3-7(13,14)8(15,16)9(17,18)10(19,20)11(21,22)12(23,24)25/h1,3-4H2,2H3",CDXFIRXEAJABAZ-UHFFFAOYSA-N,CC(=C)C(=O)OCCC(F)(F)C(F)(F)C(F)(F)C(F)(F)C(F)(F)C(F)(F)F,-6.058168846,0.477121255,2,G3,432.176,5.2346,61.18,27,2,0,15,8,160,0,0,0,0,26.3,141.4910388,5.804750288,576.3343061
A-2145,"1-(4-{[4-(2,5-dioxo-2,5-dihydro-1H-pyrrol-1-yl)phenyl]methyl}phenyl)-2,5-dihydro-1H-pyrrole-2,5-dione","InChI=1S/C21H14N2O4/c24-18-9-10-19(25)22(18)16-5-1-14(2-6-16)13-15-3-7-17(8-4-15)23-20(26)11-12-21(23)27/h1-12H,13H2",XQUPVDVFXZDTLT-UHFFFAOYSA-N,O=C1C=CC(=O)N1c2ccc(Cc3ccc(cc3)N4C(=O)C=CC4=O)cc2,-5.998008544,0,1,G1,358.353,2.1362,98.956,27,4,0,6,4,132,2,0,2,4,74.76,154.5478637,1.465397907,897.6520651
A-2147,tetradecan-1-ol,"InChI=1S/C14H30O/c1-2-3-4-5-6-7-8-9-10-11-12-13-14-15/h15H,2-14H2,1H3",HLZKNKRTKFSKGZ-UHFFFAOYSA-N,CCCCCCCCCCCCCCO,-5.787142557,0.301618495,7,G5,214.393,4.6798,68.1638,15,1,1,1,12,92,0,0,0,0,20.23,96.27773227,2.807925739,89.5118227
A-2149,diphenyl 4-(propan-2-yl)phenyl phosphate phenyl bis[4-(propan-2-yl)phenyl] phosphate triphenyl phosphate tris[4-(propan-2-yl)phenyl] phosphate,"InChI=1S/C27H33O4P/c1-19(2)22-7-13-25(14-8-22)29-32(28,30-26-15-9-23(10-16-26)20(3)4)31-27-17-11-24(12-18-27)21(5)6/h7-21H,1-6H3",ANVREEJNGJMLOV-UHFFFAOYSA-N,CC(C)c1ccc(O[P](=O)(Oc2ccc(cc2)C(C)C)Oc3ccc(cc3)C(C)C)cc1,-6.137134395,0.023076062,2,G3,452.531,8.7017,131.0835,32,4,0,5,9,170,3,0,0,3,44.76,191.7203169,1.866504181,899.8212603
A-2150,trichloro(octyl)stannane,"InChI=1S/C8H17.3ClH.Sn/c1-3-5-7-8-6-4-2;;;;/h1,3-8H2,2H3;3*1H;/q;;;;+3/p-3",INTLMJZQCBRQAT-UHFFFAOYSA-K,CCCCCCCC[Sn](Cl)(Cl)Cl,-6.010780355,0,1,G1,338.294,5.0022,61.496,12,0,0,4,7,74,0,0,0,0,0,90.97638678,3.009208079,100.9663202
A-2151,"N-(1,3-benzothiazol-2-ylsulfanyl)cyclohexanamine","InChI=1S/C13H16N2S2/c1-2-6-10(7-3-1)15-17-13-14-11-8-4-5-9-12(11)16-13/h4-5,8-10,15H,1-3,6-7H2",DEQZTKGFXNUBJL-UHFFFAOYSA-N,C1CCC(CC1)NSc2sc3ccccc3n2,-5.91714268,0.123484987,3,G5,264.419,4.2257,75.4857,17,4,1,4,3,90,2,1,1,3,24.92,109.9652502,1.637201975,455.8800488
A-2152,copper,InChI=1S/Cu,RYGMFSIKBFXOCR-UHFFFAOYSA-N,[Cu],-5.29793824,1.278596348,4,G4,63.546,-0.0025,0,1,0,0,1,0,11,0,0,0,0,0,17.96409803,0,0
A-2154,"3-[(7Z)-pentadec-7-en-1-yl]phenol; 3-[(7Z,10Z)-pentadeca-7,10,14-trien-1-yl]phenol; 3-[(7Z,10Z)-pentadeca-7,10-dien-1-yl]phenol; 3-pentadecylphenol","InChI=1S/C21H36O.C21H34O.C21H32O.C21H30O/c4*1-2-3-4-5-6-7-8-9-10-11-12-13-14-16-20-17-15-18-21(22)19-20/h15,17-19,22H,2-14,16H2,1H3;8-9,15,17-19,22H,2-7,10-14,16H2,1H3;5-6,8-9,15,17-19,22H,2-4,7,10-14,16H2,1H3;2,5-6,8-9,15,17-19,22H,1,3-4,7,10-14,16H2/b;9-8-;2*6-5-,9-8-",BQLBNJKYLGWYQM-ZWUGTYOTSA-N,CCCCCCCCCCCCCCCc1cccc(O)c1.CCCCCCC\C=C/CCCCCCc2cccc(O)c2.CCCC/C=C\C\C=C/CCCCCCc3cccc(O)c3.Oc4cccc(CCCCCC\C=C/C/C=C\CCC=C)c4,-6.597038826,0.243719876,2,G3,1205.976,26.7596,389.4592,88,4,4,4,51,492,4,0,0,4,80.92,542.5560229,5.87E-07,2280.012597
A-2155,N-(2-ethoxyphenyl)-N'-(2-ethylphenyl)ethanediamide,"InChI=1S/C18H20N2O3/c1-3-13-9-5-6-10-14(13)19-17(21)18(22)20-15-11-7-8-12-16(15)23-4-2/h5-12H,3-4H2,1-2H3,(H,19,21)(H,20,22)",YIMHRDBSVCPJOV-UHFFFAOYSA-N,CCOc1ccccc1NC(=O)C(=O)Nc2ccccc2CC,-6.017546673,0,1,G1,312.369,3.2249,90.6904,23,3,2,5,5,120,2,0,0,2,67.43,135.2144638,2.074000729,698.1709829
A-2157,oxacyclohexadecan-2-one,InChI=1S/C15H28O2/c16-15-13-11-9-7-5-3-1-2-4-6-8-10-12-14-17-15/h1-14H2,FKUPPRZPSYCDRS-UHFFFAOYSA-N,O=C1CCCCCCCCCCCCCCO1,-5.903789723,0.724816861,3,G4,240.387,4.6145,70.98,17,2,0,2,0,100,0,1,1,1,26.3,106.1176768,2.112411042,171.3608411
A-2158,"2,2'-vinylenebis[5-methylbenzoxazole]","InChI=1S/C18H14N2O2/c1-11-3-5-15-13(9-11)19-17(21-15)7-8-18-20-14-10-12(2)4-6-16(14)22-18/h3-10H,1-2H3/b8-7+",VKRZNAWSCAUDRQ-BQYQJAHWSA-N,Cc1ccc2oc(\C=C\c3oc4ccc(C)cc4n3)nc2c1,-6.000481949,0,1,G1,290.322,4.75624,86.42,22,4,0,4,2,108,4,0,0,4,52.06,126.6499463,1.682699196,926.4580098
A-2162,aluminium(3+) ion tris(N-nitroso-N-oxidoaniline),InChI=1S/3C6H5N2O2.Al/c3*9-7-8(10)6-4-2-1-3-5-6;/h3*1-5H;/q3*-1;+3,PMSRCBOGDIMQAT-UHFFFAOYSA-N,[Al+3].[O-]N(N=O)c1ccccc1.[O-]N(N=O)c2ccccc2.[O-]N(N=O)c3ccccc3,-6.194649109,0,1,G1,438.336,4.6358,120.003,31,9,0,13,6,156,3,0,0,3,167.19,186.9496886,4.29E-07,760.7996874
A-2167,"N,N-diethyl-4-[(E)-2-phenyldiazen-1-yl]aniline","InChI=1S/C16H19N3/c1-3-19(4-2)16-12-10-15(11-13-16)18-17-14-8-6-5-7-9-14/h5-13H,3-4H2,1-2H3",SJJISKLXUJVZOA-UHFFFAOYSA-N,CCN(CC)c1ccc(cc1)N=Nc2ccccc2,-5.982115268,0,1,G1,253.349,4.9482,80.621,19,3,0,3,5,98,2,0,0,2,27.96,114.1548773,2.086339079,513.4501262
A-2168,neodymium(3+) ion trifluoride,InChI=1S/3FH.Nd/h3*1H;/q;;;+3/p-3,XRADHEAKQRNYQQ-UHFFFAOYSA-K,[F-].[F-].[F-].[Nd+3],-5.893768237,1.012817553,4,G4,201.234,-8.988,0,4,0,0,4,0,25,0,0,0,0,0,54.58397387,0,3.245112498