ID,Name,InChI,InChIKey,SMILES,Solubility,SD,Ocurrences,Group,MolWt,MolLogP,MolMR,HeavyAtomCount,NumHAcceptors,NumHDonors,NumHeteroatoms,NumRotatableBonds,NumValenceElectrons,NumAromaticRings,NumSaturatedRings,NumAliphaticRings,RingCount,TPSA,LabuteASA,BalabanJ,BertzCT
A-1753,"3,6,9-triethyl-3,6,9-trimethyl-1,2,4,5,7,8-hexaoxonane","InChI=1S/C12H24O6/c1-7-10(4)13-15-11(5,8-2)17-18-12(6,9-3)16-14-10/h7-9H2,1-6H3",KVWLLOIEGKLBPA-UHFFFAOYSA-N,CCC1(C)OOC(C)(CC)OOC(C)(CC)OO1,-4.304855444,0,1,G1,264.318,3.2232,62.598,18,6,0,6,3,108,0,1,1,1,55.38,108.2169405,2.883065913,212.4992626
A-1756,bis-O-(benzylidene)-D-glucitol,"InChI=1S/C20H20O6/c21-20-12-23-19(14-9-5-2-6-10-14)25-17(20)16-15(26-20)11-22-18(24-16)13-7-3-1-4-8-13/h1-10,15-19,21H,11-12H2/t15-,16+,17-,18?,19?,20+/m1/s1",DAZRYUTWPPBZOY-WUFCDUEQSA-N,O[C@]12COC(O[C@@H]1[C@H]3OC(OC[C@H]3O2)c4ccccc4)c5ccccc5,-4.437962659,0,1,G1,356.374,2.3022,89.8388,26,6,1,6,2,136,2,3,3,5,66.38,150.7525007,1.38123278,753.4114277
A-1759,"ethyl 5-oxo-1-phenyl-4,5-dihydro-1H-pyrazole-3-carboxylate","InChI=1S/C12H12N2O3/c1-2-17-12(16)10-8-11(15)14(13-10)9-6-4-3-5-7-9/h3-7H,2,8H2,1H3",WBFXQKNQVZMOSQ-UHFFFAOYSA-N,CCOC(=O)C1=NN(C(=O)C1)c2ccccc2,-3.255345443,0,1,G1,232.239,1.3424,62.613,17,4,0,5,3,88,1,0,1,2,58.97,98.67710626,2.203521435,467.8989022
A-1762,oct-7-enal,"InChI=1S/C8H14O/c1-2-3-4-5-6-7-8-9/h2,8H,1,3-7H2",LIINGNMKNRSOGW-UHFFFAOYSA-N,C=CCCCCCC=O,-1.997252193,0,1,G1,126.199,2.3218,39.346,9,1,0,1,6,52,0,0,0,0,17.07,56.7657649,2.736022877,66.63682062
A-1764,diphenylacetic acid,"InChI=1S/C14H12O2/c15-14(16)13(11-7-3-1-4-8-11)12-9-5-2-6-10-12/h1-10,13H,(H,15,16)",PYHXGXCGESYPCW-UHFFFAOYSA-N,OC(=O)C(c1ccccc1)c2ccccc2,-3.223039886,0,1,G1,212.248,2.9031,62.3628,16,1,1,2,3,80,2,0,0,2,37.3,94.17413741,2.43726518,423.1087192
A-1769,isopropyl chlorocarbonate,"InChI=1S/C4H7ClO2/c1-3(2)7-4(5)6/h3H,1-2H3",IVRIRQXJSNCSPQ-UHFFFAOYSA-N,CC(C)OC(Cl)=O,-0.988291129,0,1,G1,122.551,1.7702,27.47,7,2,0,3,1,42,0,0,0,0,26.3,47.41241093,3.126006652,70.09004635
A-1770,sodium 2-hydroxybenzoate,"InChI=1S/C7H6O3.Na/c8-6-4-2-1-3-5(6)7(9)10;/h1-4,8H,(H,9,10);/q;+1/p-1",ABBQHOQBGMUPJH-UHFFFAOYSA-M,[Na+].Oc1ccccc1C([O-])=O,-0.107492169,0.452404757,4,G5,160.104,-3.2403,32.4373,11,3,1,4,1,52,1,0,0,1,60.36,85.95973446,1.00E-06,259.6175283
A-1772,1-phenylvinyl acetate,"InChI=1S/C10H10O2/c1-8(12-9(2)11)10-6-4-3-5-7-10/h3-7H,1H2,2H3",HWCUCNKPBMGSSC-UHFFFAOYSA-N,CC(=O)OC(=C)c1ccccc1,-2.113595388,0,1,G1,162.188,2.2204,47.242,12,2,0,2,2,62,1,0,0,1,26.3,71.47663587,2.725078186,287.966706
A-1773,"ethyl 2-(2,4-dimethyl-1,3-dioxolan-2-yl)acetate","InChI=1S/C9H16O4/c1-4-11-8(10)5-9(3)12-6-7(2)13-9/h7H,4-6H2,1-3H3",GSIXJEIRJVOUFB-UHFFFAOYSA-N,CCOC(=O)CC1(C)OCC(C)O1,-2.179887223,0,1,G1,188.223,1.0911,46.154,13,4,0,4,3,76,0,1,1,1,44.76,78.15511458,2.387037549,192.0537231
A-1775,"1,3-dichlorobenzene",InChI=1S/C6H4Cl2/c7-5-2-1-3-6(8)4-5/h1-4H,ZPQOPVIELGIULI-UHFFFAOYSA-N,Clc1cccc(Cl)c1,-3.072159801,0.033737427,3,G5,147.004,2.9934,36.462,8,0,0,2,0,42,1,0,0,1,0,58.03793557,3.077660438,166.3883389
A-1776,2-(2-methylphenyl)ethanol,"InChI=1S/C9H12O/c1-8-4-2-3-5-9(8)6-7-10/h2-5,10H,6-7H2,1H3",RUGISKODRCWQNE-UHFFFAOYSA-N,Cc1ccccc1CCO,-1.042878011,0,1,G1,136.194,1.52982,41.9688,10,1,1,1,2,54,1,0,0,1,20.23,61.32046321,2.811180917,205.6381692
A-1779,"4-chlorobenzene-1,3-diol","InChI=1S/C6H5ClO2/c7-5-2-1-4(8)3-6(5)9/h1-3,8-9H",JQVAPEJNIZULEK-UHFFFAOYSA-N,Oc1ccc(Cl)c(O)c1,-1.070567643,0.936164279,3,G4,144.557,1.7512,34.7816,9,2,2,3,0,48,1,0,0,1,40.46,57.32313685,3.17167803,222.2978871
A-1780,"6,6-dimethyl-2-methylidenebicyclo[3.1.1]heptan-3-ol","InChI=1S/C10H16O/c1-6-8-4-7(5-9(6)11)10(8,2)3/h7-9,11H,1,4-5H2,2-3H3",LCYXQUJDODZYIJ-UHFFFAOYSA-N,CC1(C)C2CC(O)C(=C)C1C2,-2.09612479,0,1,G1,152.237,1.9695,45.1418,11,1,1,1,0,62,0,3,3,3,20.23,68.11669847,2.233204672,204.9183168
A-1781,4-(propan-2-yl)cyclohexan-1-ol,"InChI=1S/C9H18O/c1-7(2)8-3-5-9(10)6-4-8/h7-10H,3-6H2,1-2H3",DKKRDMLKVSKFMJ-UHFFFAOYSA-N,CC(C)C1CCC(O)CC1,-2.068094275,0,1,G1,142.242,2.1935,42.8028,10,1,1,1,1,60,0,1,1,1,20.23,63.44719054,2.259902596,90.90138861
A-1782,"1,2-dichloro-4-nitrobenzene",InChI=1S/C6H3Cl2NO2/c7-5-2-1-4(9(10)11)3-6(5)8/h1-3H,NTBYINQTYWZXLH-UHFFFAOYSA-N,[O-][N+](=O)c1ccc(Cl)c(Cl)c1,-3.20051812,0,1,G1,192.001,2.9016,43.1164,11,2,0,5,1,58,1,0,0,1,43.14,72.6909113,3.151549668,300.6337992
A-1783,"disodium 2,5-dichloro-4-{3-methyl-5-oxo-4-[(E)-2-(4-sulfonatophenyl)diazen-1-yl]-4,5-dihydro-1H-pyrazol-1-yl}benzene-1-sulfonate","InChI=1S/C16H12Cl2N4O7S2.2Na/c1-8-15(20-19-9-2-4-10(5-3-9)30(24,25)26)16(23)22(21-8)13-6-12(18)14(7-11(13)17)31(27,28)29;;/h2-7,15H,1H3,(H,24,25,26)(H,27,28,29);;/q;2*+1/p-2",FTZLWXQKVFFWLY-UHFFFAOYSA-L,[Na+].[Na+].CC1=NN(C(=O)C1N=Nc2ccc(cc2)[S]([O-])(=O)=O)c3cc(Cl)c(cc3Cl)[S]([O-])(=O)=O,-0.66054277,0,1,G1,551.297,-3.3154,107.7294,33,10,0,17,5,164,2,0,1,3,171.79,242.8666305,2.72E-06,1351.651949
A-1784,ammonium iron(III) citrate,"InChI=1S/C6H8O7.Fe.H3N/c7-3(8)1-6(13,5(11)12)2-4(9)10;;/h13H,1-2H2,(H,7,8)(H,9,10)(H,11,12);;1H3/q;+3;/p-3",FRHBOQMZUOWXQL-UHFFFAOYSA-K,N.[Fe+3].OC(CC([O-])=O)(CC([O-])=O)C([O-])=O,0.660921397,0,1,G1,261.975,-5.0931,34.2269,15,8,2,9,5,87,0,0,0,0,175.62,94.95683354,-7.20E-07,237.8649648
A-1785,disodium 2-amino-5-[(4-sulphonatophenyl)azo]benzenesulphonate,"InChI=1S/C12H11N3O6S2.2Na/c13-11-6-3-9(7-12(11)23(19,20)21)15-14-8-1-4-10(5-2-8)22(16,17)18;;/h1-7H,13H2,(H,16,17,18)(H,19,20,21);;/q;2*+1/p-2",FPVGTPBMTFTMRT-UHFFFAOYSA-L,[Na+].[Na+].Nc1ccc(cc1[S]([O-])(=O)=O)N=Nc2ccc(cc2)[S]([O-])(=O)=O,-0.524323625,0,1,G1,401.333,-4.4996,77.3988,25,9,1,13,4,122,2,0,0,2,165.14,188.3592371,2.88E-06,976.4101376
A-1787,"Glycerol, propoxylated, esters with acrylic acid","InChI=1S/C21H32O9/c1-4-19(22)28-13-7-10-25-16-18(27-12-9-15-30-21(24)6-3)17-26-11-8-14-29-20(23)5-2/h4-6,18H,1-3,7-17H2",DMQYPVOQAARSNF-UHFFFAOYSA-N,C=CC(=O)OCCCOCC(COCCCOC(=O)C=C)OCCCOC(=O)C=C,-2.552747282,0,1,G1,428.478,1.7627,108.697,30,9,0,9,20,170,0,0,0,0,106.59,177.1351219,4.045434528,498.570079
A-1789,N-{4-[(2-hydroxyethyl)sulfonyl]phenyl}acetamide,"InChI=1S/C10H13NO4S/c1-8(13)11-9-2-4-10(5-3-9)16(14,15)7-6-12/h2-5,12H,6-7H2,1H3,(H,11,13)",XIICKRYAUAVEQS-UHFFFAOYSA-N,CC(=O)Nc1ccc(cc1)[S](=O)(=O)CCO,-2.306932302,0,1,G1,243.284,0.411,59.8843,16,4,2,6,4,88,1,0,0,1,83.47,94.02218799,2.905469666,464.0973261
A-1790,acetylene,InChI=1S/C2H2/c1-2/h1-2H,HSFWRNGVRCDJHI-UHFFFAOYSA-N,C#C,-1.336426377,0.813213188,2,G2,26.038,0.2494,9.89,2,0,0,0,0,10,0,0,0,0,0,14.10341853,3,4.754887502
A-1791,propiophenone,"InChI=1S/C9H10O/c1-2-9(10)8-6-4-3-5-7-8/h3-7H,2H2,1H3",KRIOVPPHQSLHCZ-UHFFFAOYSA-N,CCC(=O)c1ccccc1,-2.048500068,0.110900034,2,G3,134.178,2.2793,41.0635,10,1,0,1,2,52,1,0,0,1,17.07,60.68775156,2.852627929,213.4296924
A-1792,4-tert-butylbenzaldehyde,"InChI=1S/C11H14O/c1-11(2,3)10-6-4-9(8-12)5-7-10/h4-8H,1-3H3",OTXINXDGSUFPNU-UHFFFAOYSA-N,CC(C)(C)c1ccc(C=O)cc1,-3.130955276,0.05121235,3,G5,162.232,2.7966,50.5295,12,1,0,1,1,64,1,0,0,1,17.07,73.41763579,2.998837011,264.0507411
A-1793,6-aminonaphthalene-2-sulfonic acid,"InChI=1S/C10H9NO3S/c11-9-3-1-8-6-10(15(12,13)14)4-2-7(8)5-9/h1-6H,11H2,(H,12,13,14)",SEMRCUIXRUXGJX-UHFFFAOYSA-N,Nc1ccc2cc(ccc2c1)[S](O)(=O)=O,-3.269616058,0,1,G1,223.253,1.6687,58.175,15,3,2,5,1,78,2,0,0,2,80.39,87.08159436,2.728881665,619.6001476
A-1794,"1-(2,6,6-trimethylcyclohex-2-en-1-yl)pentan-3-one; prop-2-yn-1-ol","InChI=1S/C14H24O.C3H4O/c1-5-12(15)8-9-13-11(2)7-6-10-14(13,3)4;1-2-3-4/h7,13H,5-6,8-10H2,1-4H3;1,4H,3H2",BKHCAESJENSNLE-UHFFFAOYSA-N,CCC(=O)CCC1C(=CCCC1(C)C)C.OCC#C,-4.321905689,0,1,G1,264.409,3.7401,80.7128,19,2,1,2,4,108,0,0,1,1,37.3,117.8437031,7.11E-07,344.7637906
A-1795,2-ethylhexyl nitrate,"InChI=1S/C8H17NO3/c1-3-5-6-8(4-2)7-12-9(10)11/h8H,3-7H2,1-2H3",NKRVGWFEFKCZAP-UHFFFAOYSA-N,CCCCC(CC)CO[N+]([O-])=O,-4.146693491,0,1,G1,175.228,2.4111,46.2524,12,3,0,4,7,72,0,0,0,0,52.37,73.01440528,3.453466338,127.4713804
A-1796,"3-ethoxy-1,1,5-trimethylcyclohexane","InChI=1S/C11H22O/c1-5-12-10-6-9(2)7-11(3,4)8-10/h9-10H,5-8H2,1-4H3",JVBNHJDWWBSWLE-UHFFFAOYSA-N,CCOC1CC(C)CC(C)(C)C1,-4.134294434,0,1,G1,170.296,3.2377,52.21,12,1,0,1,2,72,0,1,1,1,9.23,76.49638625,2.456529736,139.9395388
A-1797,isooctyl acrylate,"InChI=1S/C11H20O2/c1-4-11(12)13-9-7-5-6-8-10(2)3/h4,10H,1,5-9H2,2-3H3",DXPPIEDUBFUSEZ-UHFFFAOYSA-N,CC(C)CCCCCOC(=O)C=C,-4.170655466,0,1,G1,184.279,2.932,54.462,13,2,0,2,7,76,0,0,0,0,26.3,80.97413647,3.07985908,150.1692686
A-1798,"2-(cyclohexylsulfanyl)-2,3-dihydro-1H-isoindole-1,3-dione","InChI=1S/C14H15NO2S/c16-13-11-8-4-5-9-12(11)14(17)15(13)18-10-6-2-1-3-7-10/h4-5,8-10H,1-3,6-7H2",UEZWYKZHXASYJN-UHFFFAOYSA-N,O=C1N(SC2CCCCC2)C(=O)c3ccccc13,-4.323794172,0,1,G1,261.346,3.2635,71.406,18,3,0,4,2,94,1,1,2,3,37.38,110.6806431,1.78867503,459.3222882
A-1799,"N-cyclohexyl-3-[(4-{[3-(cyclohexylsulfamoyl)-2,4,6-trimethylphenyl]amino}-9,10-dioxo-9,10-dihydroanthracen-1-yl)amino]-2,4,6-trimethylbenzene-1-sulfonamide","InChI=1S/C44H52N4O6S2/c1-25-23-27(3)43(55(51,52)47-31-15-9-7-10-16-31)29(5)39(25)45-35-21-22-36(38-37(35)41(49)33-19-13-14-20-34(33)42(38)50)46-40-26(2)24-28(4)44(30(40)6)56(53,54)48-32-17-11-8-12-18-32/h13-14,19-24,31-32,45-48H,7-12,15-18H2,1-6H3",AYYCRXDSCYPSRP-UHFFFAOYSA-N,Cc1cc(C)c(c(C)c1Nc2ccc(Nc3c(C)cc(C)c(c3C)[S](=O)(=O)NC4CCCCC4)c5C(=O)c6ccccc6C(=O)c25)[S](=O)(=O)NC7CCCCC7,-4.818703465,0,1,G1,797.056,9.02172,222.0094,56,8,4,12,10,296,4,2,3,7,150.54,330.9280793,1.322622003,2309.849664
A-1800,"(4-tert-butyl-3-hydroxy-2,6-dimethylphenyl)acetonitrile","InChI=1S/C14H19NO/c1-9-8-12(14(3,4)5)13(16)10(2)11(9)6-7-15/h8,16H,6H2,1-5H3",OUKJZHRCKQJXSU-UHFFFAOYSA-N,Cc1cc(c(O)c(C)c1CC#N)C(C)(C)C,-4.257902463,0,1,G1,217.312,3.37262,65.5978,16,2,1,2,1,86,1,0,0,1,44.02,97.53775347,3.465806551,447.2738627
A-1801,cadmium(2+) ion sulfanediide,InChI=1S/Cd.S,CJOBVZJTOIVNNF-UHFFFAOYSA-N,S=[Cd],-4.080623481,0,1,G1,144.479,0.6457,7.591,2,1,0,2,0,8,0,0,0,0,0,32.37979013,2,2
A-1802,"diethyl (3,5-di-tert-butyl-4-hydroxybenzyl)phosphonate","InChI=1S/C19H33O4P/c1-9-22-24(21,23-10-2)13-14-11-15(18(3,4)5)17(20)16(12-14)19(6,7)8/h11-12,20H,9-10,13H2,1-8H3",GJDRKHHGPHLVNI-UHFFFAOYSA-N,CCO[P](=O)(Cc1cc(c(O)c(c1)C(C)(C)C)C(C)(C)C)OCC,-4.472808844,0,1,G1,356.443,5.7533,100.0693,24,4,1,5,6,138,1,0,0,1,55.76,146.6599152,3.46133327,563.7684071
A-1803,diiron trimolybdenum dodecaoxide,InChI=1S/2Fe.2Mo.9O/q2*+3;;;9*-2,NGJMAOMHPSCKKA-UHFFFAOYSA-N,[O--].[O--].[O--].[O--].[O--].[O--].[O--].[O--].[O--].[Fe+3].[Fe+3].[Mo].[Mo],-4.57167099,0,1,G1,447.561,-1.0792,6.1785,13,0,0,13,0,94,0,0,0,0,256.5,124.6626753,0,15.57639132
A-1805,"zinc(2+) ion bis(2,2-dimethyloctanoate)","InChI=1S/2C10H20O2.Zn/c2*1-9(2,3)7-10(4,5)6-8(11)12;/h2*6-7H2,1-5H3,(H,11,12);/q;;+2/p-2",JUODUXKPGONLIM-UHFFFAOYSA-L,[Zn++].CC(C)(C)CC(C)(C)CC([O-])=O.CC(C)(C)CC(C)(C)CC([O-])=O,-3.534288097,0.396653726,2,G3,407.91,3.1751,94.954,25,4,0,5,6,144,0,0,0,0,80.26,167.4738221,-3.72E-07,372.3925404
A-1806,"3,7-dimethyloct-6-enenitrile","InChI=1S/C10H17N/c1-9(2)5-4-6-10(3)7-8-11/h5,10H,4,6-7H2,1-3H3",MTDAKBBUYMYKAR-UHFFFAOYSA-N,CC(CCC=C(C)C)CC#N,-3.104157036,0,1,G1,151.253,3.28258,48.059,11,1,0,1,4,62,0,0,0,0,23.79,69.72670671,3.400751537,158.2018156
A-1807,2-nitrophenyl acetate,"InChI=1S/C8H7NO4/c1-6(10)13-8-5-3-2-4-7(8)9(11)12/h2-5H,1H3",MRCKRGSNLOHYRA-UHFFFAOYSA-N,CC(=O)Oc1ccccc1[N+]([O-])=O,-2.185523911,0,1,G1,181.147,1.5201,44.4054,13,4,0,5,2,68,1,0,0,1,69.44,74.0893304,3.043527355,347.7521927
A-1808,"N-(4-amino-2,5-diethoxyphenyl)benzamide","InChI=1S/C17H20N2O3/c1-3-21-15-11-14(16(22-4-2)10-13(15)18)19-17(20)12-8-6-5-7-9-12/h5-11H,3-4,18H2,1-2H3,(H,19,20)",CNXZLZNEIYFZGU-UHFFFAOYSA-N,CCOc1cc(NC(=O)c2ccccc2)c(OCC)cc1N,-2.405757197,0,1,G1,300.358,3.3185,87.5876,22,4,2,5,6,116,2,0,0,2,73.58,129.5915733,2.307772871,641.8523519
A-1809,"1,3-benzothiazole-2-thiol","InChI=1S/C7H5NS2/c9-7-8-5-3-1-2-4-6(5)10-7/h1-4H,(H,8,9)",YXIWHUQXZSMYRE-UHFFFAOYSA-N,S=C1Nc2ccccc2S1,-3.151504892,0.461732065,4,G5,167.258,2.95889,47.0097,10,2,1,3,0,50,2,0,0,2,15.79,67.33185915,3.007619547,362.8983534
A-1814,1-phenylpyrazolidin-3-one,"InChI=1S/C9H10N2O/c12-9-6-7-11(10-9)8-4-2-1-3-5-8/h1-5H,6-7H2,(H,10,12)",CMCWWLVWPDLCRM-UHFFFAOYSA-N,O=C1CCN(N1)c2ccccc2,-1.144823301,0,1,G1,162.192,0.9279,46.5477,12,2,1,3,1,62,1,1,1,2,32.34,70.96175228,2.163151358,283.8398264
A-1815,1-(chloromethyl)-2-methylbenzene,"InChI=1S/C8H9Cl/c1-7-4-2-3-5-8(7)6-9/h2-5H,6H2,1H3",VQRBXYBBGHOGFT-UHFFFAOYSA-N,Cc1ccccc1CCl,-3.081326924,0,1,G1,140.613,2.73382,40.736,9,0,0,1,1,48,1,0,0,1,0,60.46455358,3.006524007,193.514053
A-1816,prop-1-en-2-ylbenzene,"InChI=1S/C9H10/c1-8(2)9-6-4-3-5-7-9/h3-7H,1H2,2H3",XYLMUPLGERFSHI-UHFFFAOYSA-N,CC(=C)c1ccccc1,-3.008082322,0.338530636,3,G5,118.179,2.7197,41.15,9,0,0,0,1,46,1,0,0,1,0,55.83662643,2.981454614,196.538112
A-1817,2-methoxy-4-(prop-2-en-1-yl)phenol,"InChI=1S/C10H12O2/c1-3-4-8-5-6-9(11)10(7-8)12-2/h3,5-7,11H,1,4H2,2H3",RRAFCDWBNXTKKO-UHFFFAOYSA-N,COc1cc(CC=C)ccc1O,-2.153177924,0.295488962,2,G3,164.204,2.1293,48.5598,12,2,1,2,3,64,1,0,0,1,29.46,72.10934753,2.959559547,279.1671103
A-1819,"1-Octadecanol, phosphate, potassium salt","InChI=1S/C18H38.K.H3O4P/c1-3-5-7-9-11-13-15-17-18-16-14-12-10-8-6-4-2;;1-5(2,3)4/h3-18H2,1-2H3;;(H3,1,2,3,4)",HFQLXRQLKSICDE-UHFFFAOYSA-N,[K].CCCCCCCCCCCCCCCCCC.O[P](O)(O)=O,-3.529803064,0.318191353,5,G5,391.594,5.9584,105.2369,24,1,3,6,15,143,0,0,0,0,77.76,192.8039748,-6.39E-07,235.1386528
A-1821,potassium hydroxysilanoylolate,InChI=1S/K.HO3Si/c;1-4(2)3/h;1H/q+1;-1,WMWBFVSTSRDWRL-UHFFFAOYSA-N,[K+].O[Si]([O-])=O,-3.004467174,0,1,G1,116.189,-5.2416,8.6593,5,2,1,5,0,24,0,0,0,0,60.36,73.33644973,0,29.87430298
A-1822,sodium hydroxysilanoylolate,InChI=1S/2Na.O3Si.5H2O/c;;1-4(2)3;;;;;/h;;;5*1H2/q2*+1;-2;;;;;,ADPGKKZKGXANON-UHFFFAOYSA-N,O.O.O.O.O.[Na+].[Na+].[O-][Si]([O-])=O,-3.26592063,0,1,G1,212.138,-12.9931,24.5095,11,3,0,11,0,64,0,0,0,0,220.69,108.6444514,-2.14E-09,35.07329781
A-1823,"1,3-difluorobenzene",InChI=1S/C6H4F2/c7-5-2-1-3-6(8)4-5/h1-4H,UEMGWPRHOOEKTA-UHFFFAOYSA-N,Fc1cccc(F)c1,-2.000357955,0,1,G1,114.094,1.9648,26.358,8,0,0,2,0,42,1,0,0,1,0,45.76247393,3.077660438,166.3883389
A-1825,cadmium(2+) ion carbonate,"InChI=1S/CH2O3.Cd/c2-1(3)4;/h(H2,2,3,4);/q;+2/p-2",GKDXQAKPHKQZSC-UHFFFAOYSA-L,[Cd++].[O-]C([O-])=O,-2.179682789,0,1,G1,172.42,-2.4495,5.396,5,3,0,4,0,24,0,0,0,0,63.19,48.77179221,0,29.87430298
A-1826,(3Z)-hex-3-en-1-yl 2-methylpropanoate,"InChI=1S/C10H18O2/c1-4-5-6-7-8-12-10(11)9(2)3/h5-6,9H,4,7-8H2,1-3H3/b6-5-",OSMAJVWUIUORGC-WAYWQWQTSA-N,CC\C=C/CCOC(=O)C(C)C,-3.174187371,0,1,G1,170.252,2.5419,49.845,12,2,0,2,5,70,0,0,0,0,26.3,74.60919435,3.314073541,147.9175691
A-1827,"3-({9,10-dioxo-4-[(2,4,6-trimethyl-3-sulfophenyl)amino]-9,10-dihydroanthracen-1-yl}amino)-2,4,6-trimethylbenzene-1-sulfonic acid; hexane-1,6-diamine","InChI=1S/C32H30N2O8S2.C6H16N2/c1-15-13-17(3)31(43(37,38)39)19(5)27(15)33-23-11-12-24(26-25(23)29(35)21-9-7-8-10-22(21)30(26)36)34-28-16(2)14-18(4)32(20(28)6)44(40,41)42;7-5-3-1-2-4-6-8/h7-14,33-34H,1-6H3,(H,37,38,39)(H,40,41,42);1-8H2",PAGCKSAVALMKPU-UHFFFAOYSA-N,Cc1cc(C)c(c(C)c1Nc2ccc(Nc3c(C)cc(C)c(c3C)[S](O)(=O)=O)c4C(=O)c5ccccc5C(=O)c24)[S](O)(=O)=O.NCCCCCCN,-2.820609377,0,1,G1,750.94,6.75732,203.8264,52,10,6,14,11,278,4,0,1,5,218.98,305.0716973,6.77E-07,2125.538042
A-1829,"1,1,2,3,3-pentamethyl-2,3,4,5,6,7-hexahydro-1H-inden-4-one","InChI=1S/C14H22O/c1-9-13(2,3)10-7-6-8-11(15)12(10)14(9,4)5/h9H,6-8H2,1-5H3",MIZGSAALSYARKU-UHFFFAOYSA-N,CC1C(C)(C)C2=C(C(=O)CCC2)C1(C)C,-3.265342251,0.179068265,2,G3,206.329,3.7381,62.61,15,1,0,1,0,84,0,0,2,2,17.07,92.94375528,2.596666248,344.3502012
A-1832,2-(4-{2-[4-(2-hydroxyethoxy)phenyl]propan-2-yl}phenoxy)ethan-1-ol,"InChI=1S/C19H24O4/c1-19(2,15-3-7-17(8-4-15)22-13-11-20)16-5-9-18(10-6-16)23-14-12-21/h3-10,20-21H,11-14H2,1-2H3",UUAGPGQUHZVJBQ-UHFFFAOYSA-N,CC(C)(c1ccc(OCCO)cc1)c2ccc(OCCO)cc2,-3.451790553,0.398297095,2,G3,316.397,2.7547,90.1736,23,4,2,4,8,124,2,0,0,2,58.92,136.8586501,2.129298149,534.2716071
A-1833,bis(propan-2-yl)amine,"InChI=1S/C6H15N/c1-5(2)7-6(3)4/h5-7H,1-4H3",UAOMVDZJSHZZME-UHFFFAOYSA-N,CC(C)NC(C)C,0.036242214,0,1,G1,101.193,1.3928,33.4077,7,1,1,1,2,44,0,0,0,0,12.03,46.11382378,2.953223175,33.44467836
A-1835,"7-{[(2S,3R,4S,5S,6R)-4,5-dihydroxy-6-(hydroxymethyl)-3-{[(2S,3R,4R,5R,6S)-3,4,5-trihydroxy-6-methyloxan-2-yl]oxy}oxan-2-yl]oxy}-5-hydroxy-2-(4-hydroxyphenyl)-3,4-dihydro-2H-1-benzopyran-4-one","InChI=1S/C27H32O14/c1-10-20(32)22(34)24(36)26(37-10)41-25-23(35)21(33)18(9-28)40-27(25)38-13-6-14(30)19-15(31)8-16(39-17(19)7-13)11-2-4-12(29)5-3-11/h2-7,10,16,18,20-30,32-36H,8-9H2,1H3/t10-,16-,18+,20-,21+,22+,23-,24+,25+,26-,27+/m0/s1",DFPMSGMNTNDNHN-ZPHOTFPESA-N,C[C@@H]1O[C@@H](O[C@@H]2[C@@H](O)[C@H](O)[C@@H](CO)O[C@H]2Oc3cc(O)c4C(=O)C[C@H](Oc4c3)c5ccc(O)cc5)[C@H](O)[C@H](O)[C@H]1O,-2.722438715,0.17121134,2,G3,580.539,-1.1652,134.1469,41,14,8,14,6,224,2,2,3,5,225.06,233.0282538,1.410692039,1237.263976
A-1836,tin(2+) ion oxalate,"InChI=1S/C2H2O4.Sn/c3-1(4)2(5)6;/h(H,3,4)(H,5,6);/q;+2/p-2",OQBLGYCUQGDOOR-UHFFFAOYSA-L,[Sn++].[O-]C(=O)C([O-])=O,-2.274008719,0,1,G1,206.729,-3.8946,15.768,7,4,0,5,0,36,0,0,0,0,80.26,56.0941877,0,75.69058447
A-1837,magnesium(2+) ion carbonate,"InChI=1S/CH2O3.Mg/c2-1(3)4;/h(H2,2,3,4);/q;+2/p-2",ZLNQQNXFFQJAID-UHFFFAOYSA-L,[Mg++].[O-]C([O-])=O,-2.884501857,0.268801001,2,G3,84.313,-2.8278,11.15,5,3,0,4,0,24,0,0,0,0,63.19,44.75913644,0,29.87430298
A-1839,"1,2-bis(2-methylpropyl) benzene-1,2-dicarboxylate","InChI=1S/C16H22O4/c1-11(2)9-19-15(17)13-7-5-6-8-14(13)16(18)20-10-12(3)4/h5-8,11-12H,9-10H2,1-4H3",MGWAVDBGNNKXQV-UHFFFAOYSA-N,CC(C)COC(=O)c1ccccc1C(=O)OCC(C)C,-4.383890265,0.222786888,5,G5,278.348,3.3122,76.683,20,4,0,4,6,110,1,0,0,1,52.6,119.6309589,2.815925753,420.299606
A-1840,"2-[({2,2,4-trimethyl-6-[({2-[(2-methylprop-2-enoyl)oxy]ethoxy}carbonyl)amino]hexyl}carbamoyl)oxy]ethyl 2-methylprop-2-enoate 2-[({2,4,4-trimethyl-6-[({2-[(2-methylprop-2-enoyl)oxy]ethoxy}carbonyl)amino]hexyl}carbamoyl)oxy]ethyl 2-methylprop-2-enoate","InChI=1S/C23H38N2O8/c1-16(2)19(26)30-10-12-32-21(28)24-9-8-18(5)14-23(6,7)15-25-22(29)33-13-11-31-20(27)17(3)4/h18H,1,3,8-15H2,2,4-7H3,(H,24,28)(H,25,29)",UEKHZPDUBLCUHN-UHFFFAOYSA-N,CC(CCNC(=O)OCCOC(=O)C(C)=C)CC(C)(C)CNC(=O)OCCOC(=O)C(C)=C,-4.619923834,0.005650628,2,G3,470.563,3.1199,122.4264,33,8,2,10,15,188,0,0,0,0,129.26,195.5887652,3.962106145,702.5749608
A-1843,1-(2-ethylbutyl)cyclohexane-1-carboxylic acid,"InChI=1S/C13H24O2/c1-3-11(4-2)10-13(12(14)15)8-6-5-7-9-13/h11H,3-10H2,1-2H3,(H,14,15)",XRKJBJLXKLOLKS-UHFFFAOYSA-N,CCC(CC)CC1(CCCCC1)C(O)=O,-4.281694517,0,1,G1,212.333,3.8478,61.8428,15,1,1,2,5,88,0,1,1,1,37.3,93.0684811,2.672386231,200.5814926
A-1844,dibutyl but-2-enedioate,"InChI=1S/C12H20O4/c1-3-5-9-15-11(13)7-8-12(14)16-10-6-4-2/h7-8H,3-6,9-10H2,1-2H3/b8-7+",JBSLOWBPDRZSMB-BQYQJAHWSA-N,CCCCOC(=O)\C=C\C(=O)OCCCC,-4.313551537,0,1,G1,228.288,2.2292,60.874,16,4,0,4,8,92,0,0,0,0,52.6,96.61414591,3.62821593,209.1732595
A-1850,2-[(2-methylprop-2-enoyl)oxy]ethyl 2-methylprop-2-enoate,"InChI=1S/C10H14O4/c1-7(2)9(11)13-5-6-14-10(12)8(3)4/h1,3,5-6H2,2,4H3",STVZJERGLQHEKB-UHFFFAOYSA-N,CC(=C)C(=O)OCCOC(=O)C(C)=C,-2.261313265,0,1,G1,198.218,1.225,51.546,14,4,0,4,5,78,0,0,0,0,52.6,83.19465865,3.571887517,237.2955636
A-1853,methanaminium chloride,"InChI=1S/CH5N.ClH/c1-2;/h2H2,1H3;1H",NQMRYBIKMRVZLB-UHFFFAOYSA-N,[Cl-].C[NH3+],-1.796002246,1.483288122,2,G2,67.519,-4.1379,8.8121,3,0,1,2,0,22,0,0,0,0,27.64,26.23223498,0,4.754887502
A-1855,"1,2,3-trimethylbenzene; 1H-indene; 2,3-dihydro-1H-indene","InChI=1S/C9H10.C9H8.C9H12/c2*1-2-5-9-7-3-6-8(9)4-1;1-7-5-4-6-8(2)9(7)3/h1-2,4-5H,3,6-7H2;1-6H,7H2;4-6H,1-3H3",KDEGXTBNBBKAJX-UHFFFAOYSA-N,Cc1cccc(C)c1C.C2Cc3ccccc3C2.C4C=Cc5ccccc45,-3.51623781,0.120516033,2,G3,354.537,7.04306,118.3,27,0,0,0,0,138,3,0,2,5,0,164.1404675,1.17E-07,863.3117034
A-1857,benzyl 4-hydroxybenzoate,"InChI=1S/C14H12O3/c15-13-8-6-12(7-9-13)14(16)17-10-11-4-2-1-3-5-11/h1-9,15H,10H2",MOZDKDIOPSPTBH-UHFFFAOYSA-N,Oc1ccc(cc1)C(=O)OCc2ccccc2,-3.324981323,0.016711878,2,G3,228.247,2.7492,63.6683,17,3,1,3,3,86,2,0,0,2,46.53,99.28768264,1.959405467,488.6355888