ID,Name,InChI,InChIKey,SMILES,Solubility,SD,Ocurrences,Group,MolWt,MolLogP,MolMR,HeavyAtomCount,NumHAcceptors,NumHDonors,NumHeteroatoms,NumRotatableBonds,NumValenceElectrons,NumAromaticRings,NumSaturatedRings,NumAliphaticRings,RingCount,TPSA,LabuteASA,BalabanJ,BertzCT
A-3737,"3-(3-methyl-5-oxo-4,5-dihydro-1H-pyrazol-1-yl)benzene-1-sulfonic acid","InChI=1S/C10H10N2O4S/c1-7-5-10(13)12(11-7)8-3-2-4-9(6-8)17(14,15)16/h2-4,6H,5H2,1H3,(H,14,15,16)",VEMGKBUHUTYHHA-UHFFFAOYSA-N,CC1=NN(C(=O)C1)c2cccc(c2)[S](O)(=O)=O,-1.771821543,0,1,G1,254.267,1.0459,61.4686,17,4,1,7,2,90,1,0,1,2,87.04,98.30079071,2.446226843,606.4868422
A-3738,3-methylbut-2-en-1-yl acetate,"InChI=1S/C7H12O2/c1-6(2)4-5-9-7(3)8/h4H,5H2,1-3H3",XXIKYCPRDXIMQM-UHFFFAOYSA-N,CC(=O)OCC=C(C)C,-1.474321317,0,1,G1,128.171,1.5157,36.064,9,2,0,2,2,52,0,0,0,0,26.3,55.51436801,3.305042994,120.8778406
A-3739,"N,N-dimethyloctanamide","InChI=1S/C10H21NO/c1-4-5-6-7-8-9-10(12)11(2)3/h4-9H2,1-3H3",VHRUBWHAOUIMDW-UHFFFAOYSA-N,CCCCCCCC(=O)N(C)C,-1.600248341,0,1,G1,171.284,2.4351,52.07,12,1,0,2,6,72,0,0,0,0,20.31,75.94508583,3.1432375,121.0069869
A-3741,heptan-2-one,"InChI=1S/C7H14O/c1-3-4-5-6-7(2)8/h3-6H2,1-2H3",CATSNJVOTSVZJV-UHFFFAOYSA-N,CCCCCC(C)=O,-1.433338371,0.012272472,3,G5,114.188,2.1557,34.823,8,1,0,1,4,48,0,0,0,0,17.07,51.09042581,2.822354554,66.78707744
A-3742,2-methylpentanal,"InChI=1S/C6H12O/c1-3-4-6(2)5-7/h5-6H,3-4H2,1-2H3",FTZILAQGHINQQR-UHFFFAOYSA-N,CCCC(C)C=O,-1.377449362,0.007361628,2,G3,100.161,1.6215,30.136,7,1,0,1,3,42,0,0,0,0,17.07,44.7254837,2.984360233,50.14170945
A-3744,"hexahydro-2-benzofuran-1,3-dione","InChI=1S/C8H10O3/c9-7-5-3-1-2-4-6(5)8(10)11-7/h5-6H,1-4H2",MUTGBJKUEZFXGO-UHFFFAOYSA-N,O=C1OC(=O)C2CCCCC12,-1.564736497,0,1,G1,154.165,0.8762,36.547,11,3,0,3,0,60,0,2,2,2,43.37,64.71877295,2.194698934,187.3827103
A-3746,"2,2-bis[(prop-2-en-1-yloxy)methyl]butan-1-ol","InChI=1S/C12H22O3/c1-4-7-14-10-12(6-3,9-13)11-15-8-5-2/h4-5,13H,1-2,6-11H2,3H3",BDKDHWOPFRTWPP-UHFFFAOYSA-N,CCC(CO)(COCC=C)COCC=C,-1.718248447,0,1,G1,214.305,1.7803,61.8418,15,3,1,3,10,88,0,0,0,0,38.69,92.39573243,4.031291401,157.7060452
A-3749,N-butylbutan-1-amine,"InChI=1S/C8H19N/c1-3-5-7-9-8-6-4-2/h9H,3-8H2,1-2H3",JQVDAXLFBXTEQA-UHFFFAOYSA-N,CCCCNCCCC,-1.503965448,0.038691697,3,G5,129.247,2.1762,42.6857,9,1,1,1,6,56,0,0,0,0,12.03,58.84370801,2.595082707,37.83229392
A-3751,"(1-methyl-1,2-ethanediyl)bis[oxy(methyl-2,1-ethanediyl)] diacrylate","InChI=1S/C15H24O6/c1-6-14(16)20-12(4)9-18-8-11(3)19-10-13(5)21-15(17)7-2/h6-7,11-13H,1-2,8-10H2,3-5H3",ZDQNWDNMNKSMHI-UHFFFAOYSA-N,CC(COCC(C)OC(=O)C=C)OCC(C)OC(=O)C=C,-1.875569091,0,1,G1,300.351,1.6435,77.735,21,6,0,6,11,120,0,0,0,0,71.06,125.2464597,3.72598831,352.0730051
A-3752,(2R)-2-methyloxirane,"InChI=1S/C3H6O/c1-3-2-4-3/h3H,2H2,1H3/t3-/m1/s1",GOOHAUXETOMSMM-GSVOUGTGSA-N,C[C@@H]1CO1,0.838033384,0,1,G1,58.08,0.4051,15.414,4,1,0,1,0,24,0,1,1,1,12.53,25.57684933,2.171098318,22.46439345
A-3754,2-(dibutylamino)ethan-1-ol,"InChI=1S/C10H23NO/c1-3-5-7-11(9-10-12)8-6-4-2/h12H,3-10H2,1-2H3",IWSZDQRGNFLMJS-UHFFFAOYSA-N,CCCCN(CCO)CCCC,-1.636738571,0,1,G1,173.3,1.8809,53.3418,12,2,1,2,8,74,0,0,0,0,23.47,76.57779748,3.396054517,77.90776467
A-3757,sodium 3-[(dimethylcarbamothioyl)sulfanyl]propane-1-sulfonate,"InChI=1S/C6H13NO3S3.Na/c1-7(2)6(11)12-4-3-5-13(8,9)10;/h3-5H2,1-2H3,(H,8,9,10);/q;+1/p-1",ALXDAYUOWUEKLS-UHFFFAOYSA-M,[Na+].CN(C)C(=S)SCCC[S]([O-])(=O)=O,0.1779036,0,1,G1,265.357,-2.4946,57.9242,14,5,0,8,4,78,0,0,0,0,60.44,116.8477212,0,265.4952945
A-3760,"tetrasodium 4-amino-5-hydroxy-6-[(E)-2-{2-methoxy-5-[2-(sulfonatooxy)ethanesulfonyl]phenyl}diazen-1-yl]-3-[(E)-2-{4-[2-(sulfonatooxy)ethanesulfonyl]phenyl}diazen-1-yl]naphthalene-2,7-disulfonate","InChI=1S/C27H27N5O20S6.4Na/c1-50-20-7-6-18(54(36,37)11-9-52-58(47,48)49)14-19(20)30-32-26-22(56(41,42)43)13-15-12-21(55(38,39)40)25(24(28)23(15)27(26)33)31-29-16-2-4-17(5-3-16)53(34,35)10-8-51-57(44,45)46;;;;/h2-7,12-14,30H,8-11,28H2,1H3,(H,38,39,40)(H,41,42,43)(H,44,45,46)(H,47,48,49);;;;/q;4*+1/p-4/b31-29?,32-26+;;;;",VPXBRNMQOUKIMZ-BKYDQJEUSA-J,[Na+].[Na+].[Na+].[Na+].COc1ccc(cc1N\N=C/2C(=O)c3c(N)c(N=Nc4ccc(cc4)[S](=O)(=O)CCO[S]([O-])(=O)=O)c(cc3C=C2[S]([O-])(=O)=O)[S]([O-])(=O)=O)[S](=O)(=O)CCO[S]([O-])(=O)=O,-0.416104482,0,1,G1,1021.858,-12.3356,190.896,62,25,2,35,17,316,3,0,1,4,416.97,442.6757304,9.30E-06,2969.059235
A-3762,3-amino-4-methylbenzamide,"InChI=1S/C8H10N2O/c1-5-2-3-6(8(10)11)4-7(5)9/h2-4H,9H2,1H3,(H2,10,11)",VYBKAZXQKUFAHG-UHFFFAOYSA-N,Cc1ccc(cc1N)C(N)=O,-0.57673192,0,1,G1,150.181,0.67612,44.1093,11,2,2,3,1,58,1,0,0,1,69.11,65.00259084,3.151549668,294.1435742
A-3765,"1,3-thiazol-5-ylmethanol","InChI=1S/C4H5NOS/c6-2-4-1-5-3-7-4/h1,3,6H,2H2",WKBQQWDVVHGWDB-UHFFFAOYSA-N,OCc1scnc1,0.525735536,0,1,G1,115.157,0.6354,28.0368,7,3,1,3,1,38,1,0,0,1,33.12,45.45059024,2.762608341,126.2457348
A-3768,"(2S,4R)-1-acetyl-4-hydroxypyrrolidine-2-carboxylic acid","InChI=1S/C7H11NO4/c1-4(9)8-3-5(10)2-6(8)7(11)12/h5-6,10H,2-3H2,1H3,(H,11,12)/p-1/t5-,6-/m0/s1",BAPRUDZDYCKSOQ-WDSKDSINSA-M,CC(=O)N1C[C@@H](O)C[C@H]1C([O-])=O,0.344992722,0,1,G1,172.16,-2.282,36.8058,12,4,1,5,1,68,0,1,1,1,80.67,69.59441794,2.719822388,193.4519155
A-3769,"5-(benzoylamino)-4-hydroxy-3-[[1-sulpho-6-[[2-(sulphooxy)ethyl]sulphonyl]-2-naphthyl]azo]naphthalene-2,7-disulphonic acid, sodium salt","InChI=1S/C29H23N3O17S5.4Na/c33-27-25-18(13-20(51(37,38)39)15-23(25)30-29(34)16-4-2-1-3-5-16)14-24(52(40,41)42)26(27)32-31-22-9-6-17-12-19(7-8-21(17)28(22)53(43,44)45)50(35,36)11-10-49-54(46,47)48;;;;/h1-9,12-15,31H,10-11H2,(H,30,34)(H,37,38,39)(H,40,41,42)(H,43,44,45)(H,46,47,48);;;;/q;4*+1/p-4/b32-26+;;;;",LWOVLHCKRPSUIB-CICQTRKRSA-J,[Na+].[Na+].[Na+].[Na+].[O-][S](=O)(=O)OCC[S](=O)(=O)c1ccc2c(ccc(N\N=C/3C(=O)c4c(NC(=O)c5ccccc5)cc(cc4C=C3[S]([O-])(=O)=O)[S]([O-])(=O)=O)c2[S]([O-])(=O)=O)c1,-0.389314941,0,1,G1,933.77,-11.2827,181.476,58,19,2,29,12,286,4,0,1,5,342.73,419.4907338,4.20E-06,2912.151581
A-3771,"tetrasodium 2,2'-ethene-1,2-diylbis[5-({4-morpholin-4-yl-6-[(4-sulfonatophenyl)amino]-1,3,5-triazin-2-yl}amino)benzenesulfonate]","InChI=1S/C28H29N7O10S3.C14H17N5O4S.4Na/c1-29-21-6-4-18(24(16-21)47(39,40)41)2-3-19-5-7-22(17-25(19)48(42,43)44)31-27-32-26(33-28(34-27)35-12-14-45-15-13-35)30-20-8-10-23(11-9-20)46(36,37)38;1-10-15-13(18-14(16-10)19-6-8-23-9-7-19)17-11-2-4-12(5-3-11)24(20,21)22;;;;/h2-11,16-17,29H,12-15H2,1H3,(H,36,37,38)(H,39,40,41)(H,42,43,44)(H2,30,31,32,33,34);2-5H,6-9H2,1H3,(H,20,21,22)(H,15,16,17,18);;;;/p-4/b3-2+;;;;;",XQESDAXKAMZHMR-YWURNZKTSA-J,[Na].[Na].[Na].[Na].CNc1ccc(/C=C/c2ccc(Nc3nc(Nc4ccc(cc4)[S]([O-])(=O)=O)nc(n3)N5CCOCC5)cc2[S]([O-])(=O)=O)c(c1)[S]([O-])(=O)=O.Cc6nc(Nc7ccc(cc7)[S]([O-])(=O)=O)nc(n6)N8CCOCC8,-0.48433581,0,1,G1,1159.096,1.26092,279.4146,76,26,4,34,15,386,6,2,2,8,379.2,526.8329823,4.60E-07,3440.327366
A-3772,Trimethylsulfoxonium iodide,"InChI=1S/C3H9OS.HI/c1-5(2,3)4;/h1-3H3;1H/q+1;/p-1",BPLKQGGAXWRFOE-UHFFFAOYSA-M,[I-].C[S+](C)(C)=O,-0.756884432,0.047324617,2,G3,220.075,-2.6207,25.8235,6,1,0,3,0,40,0,0,0,0,17.07,56.95522524,0,56.92878689
A-3773,"4-methylbenzene-1,3-diamine","InChI=1S/C7H10N2/c1-5-2-3-6(8)4-7(5)9/h2-4H,8-9H2,1H3",VOZKAJLKRJDJLL-UHFFFAOYSA-N,Cc1ccc(N)cc1N,-0.507184532,0,1,G1,122.171,1.15942,40.0038,9,2,2,2,0,48,1,0,0,1,52.04,54.47612663,3.17167803,218.1561776
A-3774,diaminotoluene,"InChI=1S/C7H10N2/c1-5-4-6(8)2-3-7(5)9/h2-4H,8-9H2,1H3",OBCSAIDCZQSFQH-UHFFFAOYSA-N,Cc1cc(N)ccc1N,-0.507184532,0.076305082,2,G3,122.171,1.15942,40.0038,9,2,2,2,0,48,1,0,0,1,52.04,54.47612663,3.17167803,218.1561776
A-3775,Cobalt sulfate heptahydrate,"InChI=1S/Co.H2O4S.7H2O/c;1-5(2,3)4;;;;;;;/h;(H2,1,2,3,4);7*1H2/q+2;;;;;;;;/p-2",MEYVLGVRTYSQHI-UHFFFAOYSA-L,O.O.O.O.O.O.O.[Co++].[O-][S]([O-])(=O)=O,0.12713323,0,1,G1,281.101,-7.1134,35.7712,13,4,0,13,0,95,0,0,0,0,300.76,83.69149003,-2.86E-09,93.2586864
A-3776,sodium (dimethylcarbamothioyl)sulfanide,"InChI=1S/C3H7NS2.Na/c1-4(2)3(5)6;/h1-2H3,(H,5,6);/q;+1/p-1",VMSRVIHUFHQIAL-UHFFFAOYSA-M,[Na+].CN(C)C([S-])=S,0.416892192,0,1,G1,143.212,-2.6162,33.65,7,2,0,4,0,36,0,0,0,0,3.24,77.15621546,0,63.95524698
A-3778,tris[4-(diethylamino)phenyl]methylium acetate,"InChI=1S/C31H42N3.C2H4O2/c1-7-32(8-2)28-19-13-25(14-20-28)31(26-15-21-29(22-16-26)33(9-3)10-4)27-17-23-30(24-18-27)34(11-5)12-6;1-2(3)4/h13-24H,7-12H2,1-6H3;1H3,(H,3,4)/q+1;/p-1",CBMNJIRTNNMVJC-UHFFFAOYSA-M,CCN(CC)c1ccc(cc1)[C+](c2ccc(cc2)N(CC)CC)c3ccc(cc3)N(CC)CC.CC([O-])=O,-0.139560898,0,1,G1,515.742,6.00059,161.239,38,5,0,5,12,204,3,0,0,3,49.85,230.2608113,1.18E-06,930.7842166
A-3779,ammonium chloride,InChI=1S/ClH.H3N/h1H;1H3,NLXLAEXVIDQMFP-UHFFFAOYSA-N,[NH4+].[Cl-],0.842254104,0.013027078,2,G3,53.492,-2.6198,5.9848,2,0,1,2,0,16,0,0,0,0,36.5,19.65732138,0,2
A-3781,3-morpholin-4-yloxadiazol-3-ium-5-amine chloride,"InChI=1S/C6H11N4O2.ClH/c7-6-5-10(8-12-6)9-1-3-11-4-2-9;/h5H,1-4,7H2;1H/q+1;/p-1",ZRFWHHCXSSACAW-UHFFFAOYSA-M,[Cl-].Nc1cn(n[o+]1)N2CCOCC2,0.147198317,0,1,G1,206.633,-3.6884,42.0824,13,5,1,7,1,74,1,1,1,2,67.61,81.58524588,8.45E-07,260.8918597
A-3786,(2Z)-4-butoxy-4-oxobut-2-enoic acid,"InChI=1S/C8H12O4/c1-2-3-6-12-8(11)5-4-7(9)10/h4-5H,2-3,6H2,1H3,(H,9,10)/b5-4-",UTOVMEACOLCUCK-PLNGDYQASA-N,CCCCOC(=O)\C=C/C(O)=O,-0.667780979,0,1,G1,172.18,0.9705,42.6428,12,3,1,4,5,68,0,0,0,0,63.6,70.83506598,3.526584083,183.4968818
A-3788,5-[(2-hydroxyethyl)amino]-2-methylphenol,"InChI=1S/C9H13NO2/c1-7-2-3-8(6-9(7)12)10-4-5-11/h2-3,6,10-12H,4-5H2,1H3",YGRFRBUGAPOJDU-UHFFFAOYSA-N,Cc1ccc(NCCO)cc1O,-0.655055328,0,1,G1,167.208,1.10482,48.4193,12,3,3,3,3,66,1,0,0,1,52.49,71.66455915,2.686708199,260.7054899
A-3789,"p-[4,5-dihydro-4-[[2-methoxy-5-methyl-4-[[2-(sulphooxy)ethyl]sulphonyl]phenyl]azo]-3-methyl-5-oxo-1H-pyrazol-1-yl]benzenesulphonic acid, sodium salt","InChI=1S/C20H22N4O11S3.2Na/c1-12-10-16(17(34-3)11-18(12)36(26,27)9-8-35-38(31,32)33)21-22-19-13(2)23-24(20(19)25)14-4-6-15(7-5-14)37(28,29)30;;/h4-7,10-11,19H,8-9H2,1-3H3,(H,28,29,30)(H,31,32,33);;/q;2*+1/p-2",VMRASBDRVJTOLR-UHFFFAOYSA-L,[Na+].[Na+].COc1cc(c(C)cc1N=NC2C(=NN(C2=O)c3ccc(cc3)[S]([O-])(=O)=O)C)[S](=O)(=O)CCO[S]([O-])(=O)=O,-0.239003926,0,1,G1,634.578,-4.95878,128.7372,40,14,0,20,10,206,2,0,1,3,224.39,274.7813592,4.00E-06,1644.877001
A-3791,(2S)-4-hydroxypyrrolidine-2-carboxylic acid,"InChI=1S/C5H9NO3/c7-3-1-4(5(8)9)6-2-3/h3-4,6-7H,1-2H2,(H,8,9)",PMMYEEVYMWASQN-UHFFFAOYSA-N,OC1CNC(C1)C(O)=O,0.439922115,0,1,G1,131.131,-1.2062,30.0503,9,3,3,4,1,52,0,1,1,1,69.56,52.49304012,2.3885667,125.3715149
A-3793,sodium 4-[(3-amino-4-methylbenzoyl)amino]benzenesulfonate,"InChI=1S/C14H14N2O4S.Na/c1-9-2-3-10(8-13(9)15)14(17)16-11-4-6-12(7-5-11)21(18,19)20;/h2-8H,15H2,1H3,(H,16,17)(H,18,19,20);/q;+1/p-1",QJGAGCZWQGHNDW-UHFFFAOYSA-M,[Na+].Cc1ccc(cc1N)C(=O)Nc2ccc(cc2)[S]([O-])(=O)=O,-0.949277587,0,1,G1,328.325,-1.26238,77.9498,22,5,2,8,3,110,2,0,0,2,112.32,150.3116922,2.42E-06,788.9901783
A-3794,ethyl 2-methylbut-3-enoate,"InChI=1S/C7H12O2/c1-4-6(3)7(8)9-5-2/h4,6H,1,5H2,2-3H3",WDCCXADRWCXXOR-UHFFFAOYSA-N,CCOC(=O)C(C)C=C,-1.576310856,0,1,G1,128.171,1.3716,35.994,9,2,0,2,3,52,0,0,0,0,26.3,55.51436801,3.583388068,107.4837784
A-3795,N-methylhydrazinecarbothioamide,"InChI=1S/C2H7N3S/c1-4-2(6)5-3/h3H2,1H3,(H2,4,5,6)",PTVZQOAHCSKAAS-UHFFFAOYSA-N,CNC(=S)NN,-0.465572855,1.476038224,2,G2,105.166,-1.046,28.9808,6,2,3,4,0,36,0,0,0,0,50.08,41.87272447,2.988160882,46.7548875
A-3798,potassium chloride,InChI=1S/ClH.K/h1H;/q;+1/p-1,WCUXLLCKKVVCTQ-UHFFFAOYSA-M,[Cl-].[K+],0.67777488,0.019303695,4,G5,74.551,-5.992,0,2,0,0,2,0,8,0,0,0,0,0,62.44413571,0,2
A-3799,naphthalene-2-sulfonic acid,"InChI=1S/C10H8O3S/c11-14(12,13)10-6-5-8-3-1-2-4-9(8)7-10/h1-7H,(H,11,12,13)",KVBGVZZKJNLNJU-UHFFFAOYSA-N,O[S](=O)(=O)c1ccc2ccccc2c1,0.230443278,0.782552579,3,G4,208.238,2.0865,53.7626,14,2,1,4,1,72,2,0,0,2,54.37,81.74170366,2.749372328,572.6917342
A-3804,dimethyl 2-methylenesuccinate,"InChI=1S/C7H10O4/c1-5(7(9)11-3)4-6(8)10-2/h1,4H2,2-3H3",ZWWQRMFIZFPUAA-UHFFFAOYSA-N,COC(=O)CC(=C)C(=O)OC,-0.653770318,0,1,G1,158.153,0.2787,37.789,11,4,0,4,3,62,0,0,0,0,52.6,64.78943534,3.875936633,182.8795951
A-3805,2-(2-phenoxyethoxy)ethan-1-ol,"InChI=1S/C10H14O3/c11-6-7-12-8-9-13-10-4-2-1-3-5-10/h1-5,11H,6-9H2",ZUAURMBNZUCEAF-UHFFFAOYSA-N,OCCOCCOc1ccccc1,-0.716525615,0,1,G1,182.219,1.0743,49.8418,13,3,1,3,6,72,1,0,0,1,38.69,77.91249579,2.065380184,210.6696599
A-3806,"7-hydroxy-3,7-dimethyloctanal","InChI=1S/C10H20O2/c1-9(6-8-11)5-4-7-10(2,3)12/h8-9,12H,4-7H2,1-3H3",WPFVBOQKRVRMJB-UHFFFAOYSA-N,CC(CCCC(C)(C)O)CC=O,-0.692136567,0,1,G1,172.268,2.1527,49.9938,12,2,1,2,6,72,0,0,0,0,37.3,74.97948591,3.364691121,124.2904941
A-3807,N-propylpropan-1-amine,"InChI=1S/C6H15N/c1-3-5-7-6-4-2/h7H,3-6H2,1-2H3",WEHWNAOGRSTTBQ-UHFFFAOYSA-N,CCCNCCC,-0.461082427,0.111941214,2,G3,101.193,1.396,33.4517,7,1,1,1,4,44,0,0,0,0,12.03,46.11382378,2.447472888,23.3609904
A-3808,aniline,"InChI=1S/C6H7N/c7-6-4-2-1-3-5-6/h1-5H,7H2",PAYRUJLWNCNPSJ-UHFFFAOYSA-N,Nc1ccccc1,-0.425016895,0.006117228,2,G3,93.129,1.2688,30.8544,7,1,1,1,0,36,1,0,0,1,26.02,42.77129382,3.02146531,134.1073697
A-3811,sodium hydrogen-5-sulphoisophthalate,"InChI=1S/C8H6O7S.Na/c9-7(10)4-1-5(8(11)12)3-6(2-4)16(13,14)15;/h1-3H,(H,9,10)(H,11,12)(H,13,14,15);/q;+1/p-1",YXTFRJVQOWZDPP-UHFFFAOYSA-M,[Na+].OC(=O)c1cc(cc(c1)[S]([O-])(=O)=O)C(O)=O,0.109395948,0,1,G1,268.178,-3.0089,48.3238,17,5,2,9,3,86,1,0,0,1,131.8,118.1148347,2.56E-06,530.9864683
A-3812,"hexasodium 8-{[(2E)-6-chloro-4-[(4-{[(4Z)-6-chloro-4-({8-oxido-6-sulfo-3-sulfonato-7-[(E)-2-(2-sulfonatophenyl)diazen-1-yl]naphthalen-1-yl}imino)-4,5-dihydro-1,3,5-triazin-2-yl]amino}phenyl)amino]-1,2-dihydro-1,3,5-triazin-2-ylidene]amino}-3-sulfo-6-sulfonato-2-[(E)-2-(2-sulfonatophenyl)diazen-1-yl]naphthalen-1-olate","InChI=1S/C44H30Cl2N14O20S6.6Na/c45-39-51-41(55-43(53-39)49-27-17-23(81(63,64)65)13-19-15-31(85(75,76)77)35(37(61)33(19)27)59-57-25-5-1-3-7-29(25)83(69,70)71)47-21-9-11-22(12-10-21)48-42-52-40(46)54-44(56-42)50-28-18-24(82(66,67)68)14-20-16-32(86(78,79)80)36(38(62)34(20)28)60-58-26-6-2-4-8-30(26)84(72,73)74;;;;;;/h1-18,57-58H,(H,63,64,65)(H,66,67,68)(H,69,70,71)(H,72,73,74)(H,75,76,77)(H,78,79,80)(H2,47,49,51,53,55)(H2,48,50,52,54,56);;;;;;/q;6*+1/p-6/b59-35-,60-36-;;;;;;",MPEFHPPVCSSFRQ-IGHLAAJMSA-H,[Na+].[Na+].[Na+].[Na+].[Na+].[Na+].[O-][S](=O)(=O)c1cc(Nc2nc(Cl)nc(Nc3ccc(Nc4nc(Cl)nc(Nc5cc(cc6C=C(/C(=N/Nc7ccccc7[S]([O-])(=O)=O)C(=O)c56)[S]([O-])(=O)=O)[S]([O-])(=O)=O)n4)cc3)n2)c8C(=O)C(=N/Nc9ccccc9[S]([O-])(=O)=O)\C(=Cc8c1)[S]([O-])(=O)=O,-0.630380903,0,1,G1,1470.002,-14.9208,292.9924,92,34,6,48,18,446,7,0,2,9,551.58,662.8324053,3.68E-06,4685.129638
A-3817,methyl(triphenyl)phosphonium bromide,"InChI=1S/C19H18P.BrH/c1-20(17-11-5-2-6-12-17,18-13-7-3-8-14-18)19-15-9-4-10-16-19;/h2-16H,1H3;1H/q+1;/p-1",LSEFCHWGJNHZNT-UHFFFAOYSA-M,[Br-].C[P+](c1ccccc1)(c2ccccc2)c3ccccc3,-0.018923033,0,1,G1,357.231,0.6143,91.072,21,0,0,2,3,106,3,0,0,3,0,137.5078162,1.61E-06,569.0392461
A-3819,1-methylpyridinium chloride,"InChI=1S/C6H8N.ClH/c1-7-5-3-2-4-6-7;/h2-6H,1H3;1H/q+1;/p-1",QAIGYXWRIHZZAA-UHFFFAOYSA-M,[Cl-].C[n+]1ccccc1,0.420182889,0,1,G1,129.59,-2.4849,27.618,8,0,0,2,0,44,1,0,0,1,3.88,55.37905795,4.90E-07,138.4558852
A-3820,"trisodium 7-{2-[2-(carbamoylamino)-4-{[4-({2-[2-(ethenesulfonyl)ethoxy]ethyl}amino)-6-fluoro-1,3,5-triazin-2-yl]amino}phenyl]diazen-1-yl}naphthalene-1,3,6-trisulfonate","InChI=1S/C26H26FN9O13S4.3Na/c1-2-50(38,39)8-7-49-6-5-29-25-32-23(27)33-26(34-25)30-15-3-4-18(19(11-15)31-24(28)37)35-36-20-13-17-14(10-22(20)53(46,47)48)9-16(51(40,41)42)12-21(17)52(43,44)45;;;/h2-4,9-13H,1,5-8H2,(H3,28,31,37)(H,40,41,42)(H,43,44,45)(H,46,47,48)(H2,29,30,32,33,34);;;/q;3*+1/p-3",BTCMRMVIDXSNEW-UHFFFAOYSA-K,[Na+].[Na+].[Na+].NC(=O)Nc1cc(Nc2nc(F)nc(NCCOCC[S](=O)(=O)C=C)n2)ccc1N=Nc3cc4c(cc(cc4[S]([O-])(=O)=O)[S]([O-])(=O)=O)cc3[S]([O-])(=O)=O,-0.414559724,0,1,G1,885.756,-7.4754,178.0219,56,20,4,30,16,284,4,0,0,4,357.54,384.3795549,5.23E-06,2607.263527
A-3821,2-ethyl-3-methylpyrazine,"InChI=1S/C7H10N2/c1-3-7-6(2)8-4-5-9-7/h4-5H,3H2,1-2H3",LNIMMWYNSBZESE-UHFFFAOYSA-N,CCc1nccnc1C,0.444510788,0,1,G1,122.171,1.34742,36.147,9,2,0,2,1,48,1,0,0,1,25.78,54.96552542,3.006524007,195.8625685
A-3822,hydroxyazanium chloride,"InChI=1S/ClH.H3NO/c;1-2/h1H;2H,1H2",WTDHULULXKLSOZ-UHFFFAOYSA-N,[H+].[Cl-].NO,0.689550356,0,1,G1,69.491,-3.5492,7.0859,3,2,2,3,0,22,0,0,0,0,46.25,26.10036348,-5.00E-09,8
A-3825,N-(prop-2-enamidomethyl)prop-2-enamide,"InChI=1S/C7H10N2O2/c1-3-6(10)8-5-9-7(11)4-2/h3-4H,1-2,5H2,(H,8,10)(H,9,11)",ZIUHHBKFKCYYJD-UHFFFAOYSA-N,C=CC(=O)NCNC(=O)C=C,-0.655242676,0,1,G1,154.169,-0.4517,41.5464,11,2,2,4,4,60,0,0,0,0,58.2,64.97246622,3.412190535,166.8795951
A-3830,L-sorbosonic acid,"InChI=1S/C6H10O7/c7-1-2(8)3(9)4(10)5(11)6(12)13/h2-4,7-10H,1H2,(H,12,13)/t2-,3+,4-/m0/s1",VBUYCZFBVCCYFD-NUNKFHFFSA-N,OC[C@H](O)[C@@H](O)[C@H](O)C(=O)C(O)=O,0.237320765,0,1,G1,194.139,-3.2849,37.749,13,6,5,7,5,76,0,0,0,0,135.29,72.85817456,4.327344284,201.1594481
A-3831,Methyl morpholine oxide,"InChI=1S/C5H11NO2/c1-6(7)2-4-8-5-3-6/h2-5H2,1H3",LFTLOKWAGJYHHR-UHFFFAOYSA-N,C[N+]1([O-])CCOCC1,0.456309929,0,1,G1,117.148,-0.039,30.1044,8,2,0,3,0,48,0,1,1,1,32.29,49.02481097,2.327882879,74.49785514
A-3832,tris(2-hydroxyethanaminium) citrate,"InChI=1S/C6H8O7.3C2H7NO/c7-3(8)1-6(13,5(11)12)2-4(9)10;3*3-1-2-4/h13H,1-2H2,(H,7,8)(H,9,10)(H,11,12);3*4H,1-3H2",USDOPHAAWSJWLS-UHFFFAOYSA-N,[NH3+]CCO.[NH3+]CCO.[NH3+]CCO.OC(CC([O-])=O)(CC([O-])=O)C([O-])=O,-0.050160116,0,1,G1,375.375,-10.5908,73.7275,25,10,7,13,8,152,0,0,0,0,284.23,143.8349824,-1.50E-07,309.5929113
A-3833,sodium 2-[(2-aminoethyl)amino]ethanesulfonate,"InChI=1S/C4H12N2O3S.Na/c5-1-2-6-3-4-10(7,8)9;/h6H,1-5H2,(H,7,8,9);/q;+1/p-1",VRRABDXZDGRGPC-UHFFFAOYSA-M,[Na+].NCCNCC[S]([O-])(=O)=O,0.244535954,0,1,G1,190.2,-4.9161,36.4883,11,5,2,7,5,62,0,0,0,0,95.25,88.76586588,0,170.1759841
A-3834,"trisodium 2-[(E)-2-{4-[(E)-2-{4-[(4-amino-6-chloro-1,3,5-triazin-2-yl)amino]-5-sulfonatonaphthalen-1-yl}diazen-1-yl]-2,5-dimethylphenyl}diazen-1-yl]benzene-1,4-disulfonate","InChI=1S/C27H22ClN9O9S3.3Na/c1-13-11-20(36-37-21-12-15(47(38,39)40)6-9-22(21)48(41,42)43)14(2)10-19(13)35-34-17-7-8-18(30-27-32-25(28)31-26(29)33-27)24-16(17)4-3-5-23(24)49(44,45)46;;;/h3-12H,1-2H3,(H,38,39,40)(H,41,42,43)(H,44,45,46)(H3,29,30,31,32,33);;;/q;3*+1/p-3",QODWDUXKFKJVCQ-UHFFFAOYSA-K,[Na+].[Na+].[Na+].Cc1cc(N=Nc2cc(ccc2[S]([O-])(=O)=O)[S]([O-])(=O)=O)c(C)cc1N=Nc3ccc(Nc4nc(N)nc(Cl)n4)c5c3cccc5[S]([O-])(=O)=O,-0.386945691,0,1,G1,814.127,-3.82406,171.0797,52,18,2,25,9,254,5,0,0,5,297.76,367.8858601,3.12E-06,2562.694494
A-3835,potassium 3-(acryloyloxy)propane-1-sulfonate,"InChI=1S/C6H10O5S.K/c1-2-6(7)11-4-3-5-12(8,9)10;/h2H,1,3-5H2,(H,8,9,10);/q;+1/p-1",VSFOXJWBPGONDR-UHFFFAOYSA-M,[K+].[O-][S](=O)(=O)CCCOC(=O)C=C,1.156268325,0,1,G1,232.298,-3.3451,40.3372,13,5,0,7,5,70,0,0,0,0,83.5,119.7006266,0,258.1981765
A-3836,"trisodium 1-amino-4-[[3-[[4-chloro-6-[(3-sulphonatophenyl)amino]-1,3,5-triazin-2-yl]amino]-2,4,6-trimethyl-5-sulphonatophenyl]amino]-9,10-dihydro-9,10-dioxoanthracene-2-sulphonate","InChI=1S/C32H26ClN7O11S3.3Na/c1-13-25(36-20-12-21(53(46,47)48)24(34)23-22(20)27(41)18-9-4-5-10-19(18)28(23)42)14(2)29(54(49,50)51)15(3)26(13)37-32-39-30(33)38-31(40-32)35-16-7-6-8-17(11-16)52(43,44)45;;;/h4-12,36H,34H2,1-3H3,(H,43,44,45)(H,46,47,48)(H,49,50,51)(H2,35,37,38,39,40);;;/q;3*+1/p-3",ZUCXUTRTSQLRCV-UHFFFAOYSA-K,[Na+].[Na+].[Na+].Cc1c(Nc2nc(Cl)nc(Nc3cccc(c3)[S]([O-])(=O)=O)n2)c(C)c(c(C)c1Nc4cc(c(N)c5C(=O)c6ccccc6C(=O)c45)[S]([O-])(=O)=O)[S]([O-])(=O)=O,-0.424427985,0,1,G1,882.198,-5.23704,189.8311,57,18,4,25,9,280,5,0,1,6,306.52,396.8794979,2.90E-06,2850.792291