ID,Name,InChI,InChIKey,SMILES,Solubility,SD,Ocurrences,Group,MolWt,MolLogP,MolMR,HeavyAtomCount,NumHAcceptors,NumHDonors,NumHeteroatoms,NumRotatableBonds,NumValenceElectrons,NumAromaticRings,NumSaturatedRings,NumAliphaticRings,RingCount,TPSA,LabuteASA,BalabanJ,BertzCT
A-293,3-({[({[(2-ethylhexyl)oxy]carbonyl}peroxy)carbonyl]oxy}methyl)heptane,"InChI=1S/C18H34O6/c1-5-9-11-15(7-3)13-21-17(19)23-24-18(20)22-14-16(8-4)12-10-6-2/h15-16H,5-14H2,1-4H3",ZACVGCNKGYYQHA-UHFFFAOYSA-N,CCCCC(CC)COC(=O)OOC(=O)OCC(CC)CCCC,-2.595175443,0,1,G1,346.464,5.6406,91.478,24,6,0,6,12,142,0,0,0,0,71.06,145.6497874,3.856218775,299.470675
A-295,"3,7-dimethyloct-6-enal","InChI=1S/C10H18O/c1-9(2)5-4-6-10(3)7-8-11/h5,8,10H,4,6-7H2,1-3H3/t10-/m1/s1",NEHNMFOYXAPHSD-SNVBAGLBSA-N,C[C@H](CCC=C(C)C)CC=O,-3.243750947,0,1,G1,154.253,2.9579,48.51,11,1,0,1,5,64,0,0,0,0,17.07,69.49564913,3.376357363,131.8082035
A-296,"(1S,2S)-1-methyl-4-(propan-2-yl)-7-oxabicyclo[2.2.1]heptan-2-ol","InChI=1S/C10H18O2/c1-7(2)10-5-4-9(3,12-10)8(11)6-10/h7-8,11H,4-6H2,1-3H3/t8-,9+,10-/m0/s1",IFQZADDJTDGGCP-AEJSXWLSSA-N,CC(C)[C@@]12CC[C@@](C)(O1)[C@@H](O)C2,-0.288092629,0,1,G1,170.252,1.7149,46.9168,12,2,1,2,1,70,0,2,2,2,29.46,73.91984673,2.250419872,202.0152603
A-297,3-[4-(propan-2-yl)phenyl]propanal,"InChI=1S/C12H16O/c1-10(2)12-7-5-11(6-8-12)4-3-9-13/h5-10H,3-4H2,1-2H3",RLEFOSDUWZYGOS-UHFFFAOYSA-N,CC(C)c1ccc(CCC=O)cc1,-3.302656786,0,1,G1,176.259,2.9415,54.916,13,1,0,1,4,70,1,0,0,1,17.07,79.78257791,2.636328502,258.9578951
A-298,1-bromobutane,"InChI=1S/C4H9Br/c1-2-3-4-5/h2-4H2,1H3",MPPPKRYCTPRNTB-UHFFFAOYSA-N,CCCCBr,-2.197764187,0.086117907,2,G3,137.02,2.1814,28.702,5,0,0,1,2,32,0,0,0,0,0,41.70162498,2.190609687,11.11941548
A-300,sodium hydrogen (2S)-2-dodecanamidopentanedioate,"InChI=1S/C17H31NO5.Na/c1-2-3-4-5-6-7-8-9-10-11-15(19)18-14(17(22)23)12-13-16(20)21;/h14H,2-13H2,1H3,(H,18,19)(H,20,21)(H,22,23);/q;+1/p-1/t14-;/m0./s1",IWIUXJGIDSGWDN-UQKRIMTDSA-M,[Na+].CCCCCCCCCCCC(=O)N[C@@H](CCC(O)=O)C([O-])=O,-3.60911048,0.554343232,2,G2,351.419,-0.9892,85.6515,24,4,2,7,15,134,0,0,0,0,106.53,166.6146205,0,362.8900644
A-301,[2-(1-propoxyethoxy)ethyl]benzene,"InChI=1S/C13H20O2/c1-3-10-14-12(2)15-11-9-13-7-5-4-6-8-13/h4-8,12H,3,9-11H2,1-2H3",FMYCPRQGKSONCP-UHFFFAOYSA-N,CCCOC(C)OCCc1ccccc1,-3.384192904,0,1,G1,208.301,3.0183,61.803,15,2,0,2,7,84,1,0,0,1,18.46,92.21308838,2.107711727,245.9726825
A-304,"6,6-dimethoxy-2,5,5-trimethylhex-2-ene","InChI=1S/C11H22O2/c1-9(2)7-8-11(3,4)10(12-5)13-6/h7,10H,8H2,1-6H3",RDHNTAXPFZIMDN-UHFFFAOYSA-N,COC(OC)C(C)(C)CC=C(C)C,-3.339761604,0,1,G1,186.295,2.9878,55.635,13,2,0,2,5,78,0,0,0,0,18.46,81.9261596,4.27253233,162.9290923
A-305,4-(1-methoxy-1-methylethyl)-1-methylcyclohexene,"InChI=1S/C11H20O/c1-9-5-7-10(8-6-9)11(2,3)12-4/h5,10H,6-8H2,1-4H3",YWJHQHJWHJRTAB-UHFFFAOYSA-N,COC(C)(C)C1CCC(=CC1)C,-3.296613578,0,1,G1,168.28,3.1578,52.186,12,1,0,1,2,70,0,0,1,1,9.23,75.80678322,2.561778865,179.443134
A-307,"cobalt(3+) ion 9-(2-carboxyphenyl)-6-(diethylamino)-N,N-diethyl-3H-xanthen-3-iminium bis(3-methyl-4-[(E)-2-(2-oxido-5-{[3-(propan-2-yloxy)propyl]sulfamoyl}phenyl)diazen-1-yl]-1-phenyl-1H-pyrazol-5-olate)","InChI=1S/C28H30N2O3.2C22H27N5O5S.Co/c1-5-29(6-2)19-13-15-23-25(17-19)33-26-18-20(30(7-3)8-4)14-16-24(26)27(23)21-11-9-10-12-22(21)28(31)32;2*1-15(2)32-13-7-12-23-33(30,31)18-10-11-20(28)19(14-18)24-25-21-16(3)26-27(22(21)29)17-8-5-4-6-9-17;/h9-18H,5-8H2,1-4H3;2*4-6,8-11,14-15,23,28-29H,7,12-13H2,1-3H3;/q;;;+3/p-3",WUVJFYRTCZOXAH-UHFFFAOYSA-K,[Co+3].CCN(CC)c1ccc2c(c1)[o+]c3cc(ccc3c2c4ccccc4C(O)=O)N(CC)CC.CC(C)OCCCN[S](=O)(=O)c5ccc([O-])c(c5)N=Nc6c(C)nn(c6[O-])c7ccccc7.CC(C)OCCCN[S](=O)(=O)c8ccc([O-])c(c8)N=Nc9c(C)nn(c9[O-])c%10ccccc%10,-3.235762244,0.025805925,2,G3,1445.578,12.59564,375.0533,100,21,3,28,28,528,10,0,0,10,343.2,592.3333203,2.10E-07,4439.279828
A-310,"1,4-dichloro-2-nitrobenzene",InChI=1S/C6H3Cl2NO2/c7-4-1-2-5(8)6(3-4)9(10)11/h1-3H,RZKKOBGFCAHLCZ-UHFFFAOYSA-N,[O-][N+](=O)c1cc(Cl)ccc1Cl,-3.364225398,0.37524236,3,G5,192.001,2.9016,43.1164,11,2,0,5,1,58,1,0,0,1,43.14,72.6909113,3.23220887,300.6337992
A-311,"3,7-dimethylnon-6-en-1-yn-3-ol","InChI=1S/C11H18O/c1-5-10(3)8-7-9-11(4,12)6-2/h2,8,12H,5,7,9H2,1,3-4H3/b10-8+",OJXKWJPEGDDDHH-CSKARUKUSA-N,CC/C(C)=C/CCC(C)(O)C#C,-2.302767888,0,1,G1,166.264,2.5071,52.7388,12,1,1,1,4,68,0,0,0,0,20.23,75.49252828,3.791125458,193.5398772
A-314,3-(trimethoxysilyl)propyl 2-methylprop-2-enoate,"InChI=1S/C10H20O5Si/c1-9(2)10(11)15-7-6-8-16(12-3,13-4)14-5/h1,6-8H2,2-5H3",XDLMVUHYZWKMMD-UHFFFAOYSA-N,CO[Si](CCCOC(=O)C(C)=C)(OC)OC,-3.477980722,2.210895308,3,G4,248.351,1.3739,61.978,16,5,0,6,8,94,0,0,0,0,53.99,97.70080288,3.876084167,229.0992256
A-316,"4,4'-Isopropylidenediphenol, oligomeric reaction products with 1-chloro-2,3-epoxypropane, esters with acrylic acid","InChI=1S/C15H16O2.C3H5ClO.C3H4O2/c1-15(2,11-3-7-13(16)8-4-11)12-5-9-14(17)10-6-12;4-1-3-2-5-3;1-2-3(4)5/h3-10,16-17H,1-2H3;3H,1-2H2;2H,1H2,(H,4,5)",RYSXGWPNVZQNNB-UHFFFAOYSA-N,CC(C)(c1ccc(O)cc1)c2ccc(O)cc2.OC(=O)C=C.ClCC3CO3,-3.680444963,0.385515755,2,G3,392.879,4.3047,106.6344,27,4,3,6,4,146,2,1,1,3,90.29,164.0502393,2.98E-07,671.7421159
A-319,"1-phenyl-2,5-dihydro-1H-pyrrole-2,5-dione",InChI=1S/C10H7NO2/c12-9-6-7-10(13)11(9)8-4-2-1-3-5-8/h1-7H,HIDBROSJWZYGSZ-UHFFFAOYSA-N,O=C1C=CC(=O)N1c2ccccc2,-2.327317556,0,1,G1,173.171,1.116,48.075,13,2,0,3,1,64,1,0,1,2,37.38,75.27861526,2.381006529,363.1710361
A-320,"5-methyl-2-(4-methylphenyl)-2,3-dihydro-1H-pyrazol-3-one","InChI=1S/C11H12N2O/c1-8-3-5-10(6-4-8)13-11(14)7-9(2)12-13/h3-6H,7H2,1-2H3",IOQOLGUXWSBWHR-UHFFFAOYSA-N,Cc1ccc(cc1)N2N=C(C)CC2=O,-2.365667988,0,1,G1,188.23,2.10762,56.391,14,2,0,3,1,72,1,0,1,2,32.67,83.03709681,2.315498209,392.2534879
A-321,(4-formylphenyl)boronic acid,"InChI=1S/C7H7BO3/c9-5-6-1-3-7(4-2-6)8(10)11/h1-5,10-11H",VXWBQOJISHAKKM-UHFFFAOYSA-N,OB(O)c1ccc(C=O)cc1,-2.267384667,0,1,G1,149.942,-0.8211,41.6551,11,3,2,4,2,56,1,0,0,1,57.53,64.43893885,2.9098228,242.3675283
A-322,4-methyl-4-phenylpentan-2-one,"InChI=1S/C12H16O/c1-10(13)9-12(2,3)11-7-5-4-6-8-11/h4-8H,9H2,1-3H3",PFDVPCSDZXZDMF-UHFFFAOYSA-N,CC(=O)CC(C)(C)c1ccccc1,-2.337666283,0,1,G1,176.259,2.9433,54.766,13,1,0,1,3,70,1,0,0,1,17.07,79.78257791,2.870813134,285.2526033
A-323,pentyl propanoate,"InChI=1S/C8H16O2/c1-3-5-6-7-10-8(9)4-2/h3-7H2,1-2H3",TWSRVQVEYJNFKQ-UHFFFAOYSA-N,CCCCCOC(=O)CC,-2.250522404,0.485261202,2,G3,144.214,2.1298,40.775,10,2,0,2,5,60,0,0,0,0,26.3,62.56891316,2.961775606,89.25838097
A-324,"1-chloro-1,2,2-trifluoroethene",InChI=1S/C2ClF3/c3-1(4)2(5)6,UUAGAQFQZIEFAH-UHFFFAOYSA-N,FC(F)=C(F)Cl,-2.160954298,0.373978233,2,G3,116.469,2.2603,16.203,6,0,0,4,0,36,0,0,0,0,0,37.21446255,3.675948765,58.86238311
A-326,"Dodecan-1-ol, ethoxylated","InChI=1S/C14H30O2/c1-2-3-4-5-6-7-8-9-10-11-13-16-14-12-15/h15H,2-14H2,1H3",SFNALCNOMXIBKG-UHFFFAOYSA-N,CCCCCCCCCCCCOCCO,-1.459377408,0,1,G1,230.392,3.9162,69.7488,16,2,1,2,13,98,0,0,0,0,29.46,101.3912775,2.828262413,101.3029689
A-328,11-aminoundecanoic acid,"InChI=1S/C11H23NO2/c12-10-8-6-4-2-1-3-5-7-9-11(13)14/h1-10,12H2,(H,13,14)",GUOSQNAUYHMCRU-UHFFFAOYSA-N,NCCCCCCCCCCC(O)=O,-2.400775362,0.196373312,5,G5,201.31,2.5406,58.2432,14,2,2,3,10,84,0,0,0,0,63.32,86.68431872,2.884064615,137.2492211
A-329,"N',N'''''-hexane-1,6-diylbis[N-(4-chlorophenyl)(imidodicarbonimidic diamide)]","InChI=1S/C22H30Cl2N10/c23-15-5-9-17(10-6-15)31-21(27)33-19(25)29-13-3-1-2-4-14-30-20(26)34-22(28)32-18-11-7-16(24)8-12-18/h5-12H,1-4,13-14H2,(H5,25,27,29,31,33)(H5,26,28,30,32,34)",GHXZTYHSJHQHIJ-UHFFFAOYSA-N,NC(Nc1ccc(Cl)cc1)=NC(N)=NCCCCCCN=C(N)N=C(N)Nc2ccc(Cl)cc2,-2.800595088,0,1,G1,505.458,3.3366,144.841,34,2,6,12,9,182,2,0,0,2,177.58,208.785028,1.605501052,931.4857206
A-331,(5Z)-5-ethylidenebicyclo[2.2.1]hept-2-ene,"InChI=1S/C9H12/c1-2-8-5-7-3-4-9(8)6-7/h2-4,7,9H,5-6H2,1H3/b8-2+",OJOWICOBYCXEKR-KRXBUXKQSA-N,C\C=C1/CC2CC1C=C2,-3.176796415,0.476851793,2,G3,120.195,2.5287,39.111,9,0,0,0,0,48,0,1,2,2,0,56.26791957,2.289029629,174.4773318
A-332,"1,3-diethyl-1,3-diphenylurea","InChI=1S/C17H20N2O/c1-3-18(15-11-7-5-8-12-15)17(20)19(4-2)16-13-9-6-10-14-16/h5-14H,3-4H2,1-2H3",PZIMIYVOZBTARW-UHFFFAOYSA-N,CCN(C(=O)N(CC)c1ccccc1)c2ccccc2,-3.525627796,0,1,G1,268.36,4.1594,84.32,20,1,0,3,4,104,2,0,0,2,23.55,119.9943973,2.275576049,489.9311666
A-334,butyl 2-aminobenzoate,"InChI=1S/C11H15NO2/c1-2-3-8-14-11(13)9-6-4-5-7-10(9)12/h4-7H,2-3,8,12H2,1H3",HUIYGGQINIVDNW-UHFFFAOYSA-N,CCCCOC(=O)c1ccccc1N,-3.383020526,0,1,G1,193.246,2.2257,56.0449,14,3,1,3,4,76,1,0,0,1,52.32,83.87107172,2.564465699,309.9107706
A-338,benzyl 2-hydroxybenzoate,"InChI=1S/C14H12O3/c15-13-9-5-4-8-12(13)14(16)17-10-11-6-2-1-3-7-11/h1-9,15H,10H2",ZCTQGTTXIYCGGC-UHFFFAOYSA-N,Oc1ccccc1C(=O)OCc2ccccc2,-4.413922406,0,1,G1,228.247,2.7492,63.6683,17,3,1,3,3,86,2,0,0,2,46.53,99.28768264,2.012836804,505.8855888
A-339,tetrabutylstannane,"InChI=1S/4C4H9.Sn/c4*1-3-4-2;/h4*1,3-4H2,2H3;",AFCAKJKUYFLYFK-UHFFFAOYSA-N,CCCC[Sn](CCCC)(CCCC)CCCC,-4.596065772,0.980202819,2,G2,347.175,6.6356,84.614,17,0,0,1,12,104,0,0,0,0,0,114.8307352,4.391491248,116.0943933
A-342,magnesium(2+) ion dimethanolate,InChI=1S/2CH3O.Mg/c2*1-2;/h2*1H3;/q2*-1;+2,CRGZYKWWYNQGEC-UHFFFAOYSA-N,[Mg++].C[O-].C[O-],-3.994369951,2.247217478,5,G4,86.373,-2.4278,17.602,5,2,0,3,0,28,0,0,0,0,46.12,47.96838761,-1.33E-08,7.609640474
A-343,cadmium,InChI=1S/Cd/q+2,WLZRMCYVCSSEQC-UHFFFAOYSA-N,[Cd++],-4.111293422,0.288895708,2,G3,112.412,-0.0025,0,1,0,0,1,0,0,0,0,0,0,0,27.65102933,0,0
A-347,"6,8-bis(phenylamino)naphthalene-1-sulfonic acid","InChI=1S/C22H18N2O3S/c25-28(26,27)21-13-7-8-16-14-19(23-17-9-3-1-4-10-17)15-20(22(16)21)24-18-11-5-2-6-12-18/h1-15,23-24H,(H,25,26,27)",USFSONWQSVCJBO-UHFFFAOYSA-N,O[S](=O)(=O)c1cccc2cc(Nc3ccccc3)cc(Nc4ccccc4)c12,-4.672502907,0,1,G1,390.464,5.5737,113.212,28,4,3,6,5,140,4,0,0,4,78.43,162.9556164,1.900270664,1224.864054
A-348,di-tert-butyl sec-butylidene diperoxide,"InChI=1S/C12H26O4/c1-9-12(8,15-13-10(2,3)4)16-14-11(5,6)7/h9H2,1-8H3",HQOVXPHOJANJBR-UHFFFAOYSA-N,CCC(C)(OOC(C)(C)C)OOC(C)(C)C,-4.45076092,0,1,G1,234.336,3.606,62.542,16,4,0,4,5,98,0,0,0,0,36.92,99.06638584,4.21219129,182.04475
A-349,"1,1'-sulfanediyldibenzene",InChI=1S/C12H10S/c1-3-7-11(8-4-1)13-12-9-5-2-6-10-12/h1-10H,LTYMSROWYAPPGB-UHFFFAOYSA-N,S(c1ccccc1)c2ccccc2,-4.360607869,0,1,G1,186.279,3.8378,57.007,13,1,0,1,2,64,2,0,0,2,0,82.61160735,2.161475751,315.8986487
A-350,"4-[(1-amino-4-hydroxy-9,10-dioxo-9,10-dihydroanthracen-2-yl)oxy]-N-(3-ethoxypropyl)benzene-1-sulfonamide","InChI=1S/C25H24N2O7S/c1-2-33-13-5-12-27-35(31,32)16-10-8-15(9-11-16)34-20-14-19(28)21-22(23(20)26)25(30)18-7-4-3-6-17(18)24(21)29/h3-4,6-11,14,27-28H,2,5,12-13,26H2,1H3",ALXCWDABTQQKAH-UHFFFAOYSA-N,CCOCCCN[S](=O)(=O)c1ccc(Oc2cc(O)c3C(=O)c4ccccc4C(=O)c3c2N)cc1,-4.787470096,0,1,G1,496.541,3.247,128.6407,35,8,3,10,9,182,3,0,1,4,145.02,202.0892524,1.563139004,1400.057895
A-352,"tetrachloro-1,3-dihydro-2-benzofuran-1,3-dione",InChI=1S/C8Cl4O3/c9-3-1-2(8(14)15-7(1)13)4(10)6(12)5(3)11,AUHHYELHRWCWEZ-UHFFFAOYSA-N,Clc1c(Cl)c(Cl)c2C(=O)OC(=O)c2c1Cl,-4.553119611,1.967868338,5,G4,285.897,3.6108,56.228,15,3,0,7,0,78,1,0,1,2,43.37,103.8051105,2.922568909,464.3436253
A-355,"calcium 4,5-dichloro-2-[(E)-2-[3-methyl-5-oxo-1-(3-sulfonatophenyl)-4,5-dihydro-1H-pyrazol-4-yl]diazen-1-yl]benzene-1-sulfonate","InChI=1S/C16H12Cl2N4O7S2.Ca/c1-8-15(20-19-13-6-11(17)12(18)7-14(13)31(27,28)29)16(23)22(21-8)9-3-2-4-10(5-9)30(24,25)26;/h2-7,15H,1H3,(H,24,25,26)(H,27,28,29);/q;+2/p-2",KJAXOZTWNHRZQG-UHFFFAOYSA-L,[Ca++].CC1=NN(c2cccc(c2)[S]([O-])(=O)=O)C(=O)C1N=Nc3cc(Cl)c(Cl)cc3[S]([O-])(=O)=O,-3.839084061,0,1,G1,545.395,2.2958,113.4834,32,10,0,16,5,164,2,0,1,3,171.79,222.1555992,3.63E-06,1364.436943
A-356,ethanol,"InChI=1S/C2H6O/c1-2-3/h3H,2H2,1H3",LFQSCWFLJHTTHZ-UHFFFAOYSA-N,CCO,1.233668218,0.096862849,3,G5,46.069,-0.0014,12.7598,3,1,1,1,0,20,0,0,0,0,20.23,19.89842689,1.632993162,2.754887502
A-359,"1,4-dimethoxybenzene","InChI=1S/C8H10O2/c1-9-7-3-5-8(10-2)6-4-7/h3-6H,1-2H3",OHBQPCCCRFSCAX-UHFFFAOYSA-N,COc1ccc(OC)cc1,-2.245531528,0.0224182,2,G3,138.166,1.7038,39.546,10,2,0,2,2,54,1,0,0,1,18.46,60.38837781,2.797251263,167.9174942
A-360,[2-(cyclohexyloxy)ethyl]benzene,"InChI=1S/C14H20O/c1-3-7-13(8-4-1)11-12-15-14-9-5-2-6-10-14/h1,3-4,7-8,14H,2,5-6,9-12H2",HLMIVULQFMULRM-UHFFFAOYSA-N,C1CCC(CC1)OCCc2ccccc2,-2.418090055,0,1,G1,204.313,3.5784,62.971,15,1,0,1,4,82,1,1,1,2,9.23,92.45865411,1.658537056,261.9270063
A-362,"cobalt(2+);2-ethyl-2,5-dimethylhexanoate","InChI=1S/2C10H20O2.Co/c2*1-5-10(4,9(11)12)7-6-8(2)3;/h2*8H,5-7H2,1-4H3,(H,11,12);/q;;+2/p-2",KOKXAPDKXDSOEG-UHFFFAOYSA-L,[Co++].CCC(C)(CCC(C)C)C([O-])=O.CCC(C)(CCC(C)C)C([O-])=O,-2.716017407,0,1,G1,401.453,3.1751,94.954,25,4,0,5,10,151,0,0,0,0,80.26,164.9105275,-3.72E-07,345.892443
A-363,"(2E)-1-(2,6,6-trimethylcyclohex-3-en-1-yl)but-2-en-1-one","InChI=1S/C13H20O/c1-5-7-11(14)12-10(2)8-6-9-13(12,3)4/h5-8,10,12H,9H2,1-4H3/b7-5+",XEJGJTYRUWUFFD-FNORWQNLSA-N,C/C=C/C(=O)C1C(C)C=CCC1(C)C,-3.396366501,0,1,G1,192.302,3.37,60.013,14,1,0,1,2,78,0,0,1,1,17.07,86.89504128,2.927965908,270.9601503
A-364,"1,4-bis(oxiran-2-ylmethyl) benzene-1,4-dicarboxylate","InChI=1S/C14H14O6/c15-13(19-7-11-5-17-11)9-1-2-10(4-3-9)14(16)20-8-12-6-18-12/h1-4,11-12H,5-8H2",NEPKLUNSRVEBIX-UHFFFAOYSA-N,O=C(OCC1CO1)c2ccc(cc2)C(=O)OCC3CO3,-3.557960056,0,1,G1,278.26,0.7978,66.487,20,6,0,6,6,106,1,2,2,3,77.66,115.1165028,1.516389025,453.9003429
A-365,dec-4-enal,"InChI=1S/C10H18O/c1-2-3-4-5-6-7-8-9-10-11/h6-7,10H,2-5,8-9H2,1H3/b7-6+",CWRKZMLUDFBPAO-VOTSOKGWSA-N,CCCCC/C=C/CCC=O,-3.301742894,0,1,G1,154.253,3.102,48.58,11,1,0,1,7,64,0,0,0,0,17.07,69.49564913,2.965479644,105.4404047
A-367,"disodium 2,2'-ethene-1,2-diylbis[5-({4-anilino-6-[(2-hydroxyethyl)(methyl)amino]-1,3,5-triazin-2-yl}amino)benzenesulfonate]","InChI=1S/C38H40N12O8S2.2Na/c1-49(19-21-51)37-45-33(39-27-9-5-3-6-10-27)43-35(47-37)41-29-17-15-25(31(23-29)59(53,54)55)13-14-26-16-18-30(24-32(26)60(56,57)58)42-36-44-34(40-28-11-7-4-8-12-28)46-38(48-36)50(2)20-22-52;;/h3-18,23-24,51-52H,19-22H2,1-2H3,(H,53,54,55)(H,56,57,58)(H2,39,41,43,45,47)(H2,40,42,44,46,48);;/q;2*+1/p-2/b14-13+;;",VVYVUOFMPAXVCH-QDBORUFSSA-L,[Na+].[Na+].CN(CCO)c1nc(Nc2ccccc2)nc(Nc3ccc(/C=C/c4ccc(Nc5nc(Nc6ccccc6)nc(n5)N(C)CCO)cc4[S]([O-])(=O)=O)c(c3)[S]([O-])(=O)=O)n1,-3.069321152,0,1,G1,900.912,-2.1254,224.1188,62,20,6,24,18,312,6,0,0,6,286.8,401.6563508,4.22E-06,2525.077197
A-368,"2,3,5-trimethylphenol","InChI=1S/C9H12O/c1-6-4-7(2)8(3)9(10)5-6/h4-5,10H,1-3H3",OGRAOKJKVGDSFR-UHFFFAOYSA-N,Cc1cc(C)c(C)c(O)c1,-2.252203004,0,1,G1,136.194,2.31746,42.3178,10,1,1,1,0,54,1,0,0,1,20.23,61.32046321,3.310532875,227.9003334
A-369,"1,1,1-trifluoroethane","InChI=1S/C2H3F3/c1-2(3,4)5/h1H3",UJPMYEOUBPIPHQ-UHFFFAOYSA-N,CC(F)(F)F,-2.043101387,0,1,G1,84.04,1.5686,11.729,5,0,0,3,0,32,0,0,0,0,0,27.60079935,3.023715784,20.36452798
A-370,2-hydroxy-1-[4-(2-hydroxyethoxy)phenyl]-2-methylpropan-1-one,"InChI=1S/C12H16O4/c1-12(2,15)11(14)9-3-5-10(6-4-9)16-8-7-13/h3-6,13,15H,7-8H2,1-2H3",GJKGAPPUXSSCFI-UHFFFAOYSA-N,CC(C)(O)C(=O)c1ccc(OCCO)cc1,-1.469930479,0,1,G1,224.256,1.0113,59.6511,16,4,2,4,5,88,1,0,0,1,66.76,94.48459064,2.750871838,348.2766642
A-371,isothiocyanatomethane,InChI=1S/C2H3NS/c1-3-2-4/h1H3,LGDSHSYDSCRFAB-UHFFFAOYSA-N,CN=C=S,-0.98322259,0.014618336,3,G5,73.12,0.719,20.95,4,2,0,2,0,22,0,0,0,0,12.36,30.35829588,3.108612297,44
A-372,"1,3-dimethyl-1,3-diphenylurea","InChI=1S/C15H16N2O/c1-16(13-9-5-3-6-10-13)15(18)17(2)14-11-7-4-8-12-14/h3-12H,1-2H3",ADCBKYIHQQCFHE-UHFFFAOYSA-N,CN(C(=O)N(C)c1ccccc1)c2ccccc2,-3.497557581,0,1,G1,240.306,3.3792,75.086,18,1,0,3,2,92,2,0,0,2,23.55,107.2645131,2.171465719,463.0315152
A-373,"1,4-dioxacyclohexadecane-5,16-dione",InChI=1S/C14H24O4/c15-13-9-7-5-3-1-2-4-6-8-10-14(16)18-12-11-17-13/h1-12H2,GJJSUPSPZIZYPM-UHFFFAOYSA-N,O=C1CCCCCCCCCCC(=O)OCCO1,-3.533758505,0,1,G1,256.342,2.9874,68.088,18,4,0,4,0,104,0,1,1,1,52.6,109.027802,2.218727882,224.1785465
A-374,"Alcohols, C9-11-iso-, C10-rich","InChI=1S/C10H22O/c1-10(2)8-6-4-3-5-7-9-11/h10-11H,3-9H2,1-2H3",PLLBRTOLHQQAQQ-UHFFFAOYSA-N,CC(C)CCCCCCCO,-3.324378497,0.213177472,2,G3,158.285,2.9753,49.6258,11,1,1,1,7,68,0,0,0,0,20.23,70.81796381,2.796421872,69.27302875
A-376,cobalt(2+) dipropanoate,"InChI=1S/2C3H6O2.Co/c2*1-2-3(4)5;/h2*2H2,1H3,(H,4,5);/q;;+2/p-2",TZWGXFOSKIHUPW-UHFFFAOYSA-L,[Co++].CCC([O-])=O.CCC([O-])=O,-0.437662317,0,1,G1,205.075,-1.7099,30.596,11,4,0,5,2,67,0,0,0,0,80.26,75.80133794,-1.07E-07,99.14991062
A-377,ethyl 3-phenyloxirane-2-carboxylate,"InChI=1S/C11H12O3/c1-2-13-11(12)10-9(14-10)8-6-4-3-5-7-8/h3-7,9-10H,2H2,1H3",GOMAKLPNAAZVCJ-UHFFFAOYSA-N,CCOC(=O)C1OC1c2ccccc2,-2.409651238,0,1,G1,192.214,1.6896,50.689,14,3,0,3,3,74,1,1,1,2,38.83,82.6388951,1.963751398,320.5643458
A-378,"2,6-dimethylheptan-2-ol","InChI=1S/C9H20O/c1-8(2)6-5-7-9(3,4)10/h8,10H,5-7H2,1-4H3",HGDVHRITTGWMJK-UHFFFAOYSA-N,CC(C)CCCC(C)(C)O,-2.286983634,0,1,G1,144.258,2.5836,44.9868,10,1,1,1,4,62,0,0,0,0,20.23,64.4530217,3.205455337,79.21928095
A-379,benzyl propanoate,"InChI=1S/C10H12O2/c1-2-10(11)12-8-9-6-4-3-5-7-9/h3-7H,2,8H2,1H3",VHOMAPWVLKRQAZ-UHFFFAOYSA-N,CCC(=O)OCc1ccccc1,-2.344979827,0.435201953,2,G3,164.204,2.1398,46.529,12,2,0,2,3,64,1,0,0,1,26.3,72.16623891,2.384535863,241.275309
A-381,1-ethynylcyclohexyl acetate,"InChI=1S/C10H14O2/c1-3-10(12-9(2)11)7-5-4-6-8-10/h1H,4-8H2,2H3",YASSLXHVJQGNOK-UHFFFAOYSA-N,CC(=O)OC1(CCCCC1)C#C,-2.352215179,0,1,G1,166.22,1.8856,46.415,12,2,0,2,1,66,0,1,1,1,26.3,73.29219163,2.614625505,206.3686941
A-382,triethylamine,"InChI=1S/C6H15N/c1-4-7(5-2)6-3/h4-6H2,1-3H3",ZMANZCXQSJIPKH-UHFFFAOYSA-N,CCN(CC)CC,-0.137682984,0.335493418,7,G5,101.193,1.3481,33.462,7,1,0,1,3,44,0,0,0,0,3.24,46.32379527,2.992302883,25.65148445
A-383,"N-(3-aminopropyl)-N'-octadec-9-en-1-ylpropane-1,3-diamine","InChI=1S/C24H51N3/c1-2-3-4-5-6-7-8-9-10-11-12-13-14-15-16-17-21-26-23-19-24-27-22-18-20-25/h9-10,26-27H,2-8,11-25H2,1H3/b10-9-",ZXUXEWRICDHNKF-KTKRTIGZSA-N,CCCCCCCC\C=C/CCCCCCCCNCCCNCCCN,-3.718391335,0,1,G1,381.693,5.942,123.4798,27,3,3,3,23,162,0,0,0,0,50.08,170.8829317,3.031801805,278.7998507
A-384,(methylsulfanyl)methane,InChI=1S/C2H6S/c1-3-2/h1-2H3,QMMFVYPAHWMCMS-UHFFFAOYSA-N,CSC,-0.931218902,0.225565451,4,G5,62.137,0.9792,19.439,3,1,0,1,0,20,0,0,0,0,0,25.22730317,1.632993162,2.754887502
A-385,sodium (methylcarbamothioyl)sulfanide,"InChI=1S/C2H5NS2.Na/c1-3-2(4)5;/h1H3,(H2,3,4,5);/q;+1/p-1",AFCCDDWKHLHPDF-UHFFFAOYSA-M,[Na+].CNC([S-])=S,0.747325108,0,1,G1,129.185,-2.9584,29.0227,6,2,1,4,0,30,0,0,0,0,12.03,70.58130186,0,46.81274391
A-387,"2,4,5-trichloroaniline","InChI=1S/C6H4Cl3N/c7-3-1-5(9)6(10)2-4(3)8/h1-2H,10H2",GUMCAKKKNKYFEB-UHFFFAOYSA-N,Nc1cc(Cl)c(Cl)cc1Cl,-3.435950486,0,1,G1,196.464,3.229,45.8844,10,1,1,4,0,54,1,0,0,1,26.02,73.6810925,3.282462907,209.1649959
A-388,2-chloro-6-(trichloromethyl)pyridine,"InChI=1S/C6H3Cl4N/c7-5-3-1-2-4(11-5)6(8,9)10/h1-3H",DCUJJWWUNKIJPH-UHFFFAOYSA-N,Clc1cccc(n1)C(Cl)(Cl)Cl,-3.506108364,0.151664531,3,G5,230.909,3.5617,48.484,11,1,0,5,0,60,1,0,0,1,12.89,84.22905812,3.059901692,255.0043502
A-389,3-hydroxynaphthalene-2-carboxylic acid,"InChI=1S/C11H8O3/c12-10-6-8-4-2-1-3-7(8)5-9(10)11(13)14/h1-6,12H,(H,13,14)",ALKYHXVLJMQRLQ-UHFFFAOYSA-N,OC(=O)c1cc2ccccc2cc1O,-3.417245584,0.571333752,2,G2,188.182,2.2436,52.5721,14,2,2,3,1,70,2,0,0,2,57.53,80.22799937,2.77051081,502.8588453
A-390,"(3E)-penta-1,3-diene; (3Z)-penta-1,3-diene; cyclopentene","InChI=1S/3C5H8/c1-2-4-5-3-1;2*1-3-5-4-2/h1-2H,3-5H2;2*3-5H,1H2,2H3/b;5-4+;5-4-",UEGXXVLLCWTKGN-GIHNHNQOSA-N,C\C=C/C=C.C/C=C/C=C.C1CC=CC1,-2.454265074,0.277547224,2,G3,204.357,5.2235,73.013,15,0,0,0,2,84,0,0,1,1,0,95.40625662,0,182.0782
A-391,3-(3-propan-2-ylphenyl)butanal,"InChI=1S/C13H18O/c1-10(2)12-5-4-6-13(9-12)11(3)7-8-14/h4-6,8-11H,7H2,1-3H3",OHRBQTOZYGEWCJ-UHFFFAOYSA-N,CC(C)c1cccc(c1)C(C)CC=O,-3.677346846,0,1,G1,190.286,3.5025,59.627,14,1,0,1,4,76,1,0,0,1,17.07,86.14752002,2.870654854,301.858802