ID,Name,InChI,InChIKey,SMILES,Solubility,SD,Ocurrences,Group,MolWt,MolLogP,MolMR,HeavyAtomCount,NumHAcceptors,NumHDonors,NumHeteroatoms,NumRotatableBonds,NumValenceElectrons,NumAromaticRings,NumSaturatedRings,NumAliphaticRings,RingCount,TPSA,LabuteASA,BalabanJ,BertzCT
A-2169,"2-ethyl-9,10-dihydroanthracene-9,10-dione","InChI=1S/C16H12O2/c1-2-10-7-8-13-14(9-10)16(18)12-6-4-3-5-11(12)15(13)17/h3-9H,2H2,1H3",SJEBAWHUJDUKQK-UHFFFAOYSA-N,CCc1ccc2C(=O)c3ccccc3C(=O)c2c1,-5.984242497,0,1,G1,236.27,3.0244,69.127,18,2,0,2,1,88,2,0,1,3,34.14,105.2654788,2.268429126,668.5472201
A-2172,(4-methyl-4-phenylpent-1-en-2-yl)benzene,"InChI=1S/C18H20/c1-15(16-10-6-4-7-11-16)14-18(2,3)17-12-8-5-9-13-17/h4-13H,1,14H2,2-3H3",ZOKCNEIWFQCSCM-UHFFFAOYSA-N,CC(C)(CC(=C)c1ccccc1)c2ccccc2,-6.01184247,0,1,G1,236.358,5.0677,79.561,18,0,0,0,4,92,2,0,0,2,0,109.988547,2.16512454,506.2492785
A-2173,"{2-butyl-4-chloro-1-[(4-{2-[2-(triphenylmethyl)-2H-1,2,3,4-tetrazol-5-yl]phenyl}phenyl)methyl]-1H-imidazol-5-yl}methanol","InChI=1S/C41H37ClN6O/c1-2-3-23-38-43-39(42)37(29-49)47(38)28-30-24-26-31(27-25-30)35-21-13-14-22-36(35)40-44-46-48(45-40)41(32-15-7-4-8-16-32,33-17-9-5-10-18-33)34-19-11-6-12-20-34/h4-22,24-27,49H,2-3,23,28-29H2,1H3",QQPGGBNMTNDKEY-UHFFFAOYSA-N,CCCCc1nc(Cl)c(CO)n1Cc2ccc(cc2)c3ccccc3c4nnn(n4)C(c5ccccc5)(c6ccccc6)c7ccccc7,-6.461251172,0,1,G1,665.241,8.5804,194.1688,49,7,1,8,12,244,7,0,0,7,81.65,291.0482796,1.276122941,2030.0048
A-2174,disodium oxotitaniumbis(olate),InChI=1S/2Na.3O.Ti/q2*+1;3*-2;+4,LJUBBLNHYXJKSN-UHFFFAOYSA-N,[O--].[O--].[O--].[Na+].[Na+].[Ti+4],-5.805457995,0,1,G1,141.844,-6.3509,2.0595,6,0,0,6,0,24,0,0,0,0,85.5,95.64367091,0,8.754887502
A-2175,(2R)-2-ethylhexyl (2E)-3-(4-methoxyphenyl)prop-2-enoate (2S)-2-ethylhexyl (2E)-3-(4-methoxyphenyl)prop-2-enoate,"InChI=1S/2C18H26O3/c2*1-4-6-7-15(5-2)14-21-18(19)13-10-16-8-11-17(20-3)12-9-16/h2*8-13,15H,4-7,14H2,1-3H3/b2*13-10+/t2*15-/m10/s1",AKRXZXNNMQZCSA-IVGCKTBMSA-N,CCCC[C@H](CC)COC(=O)/C=C/c1ccc(OC)cc1.CCCC[C@@H](CC)COC(=O)/C=C/c2ccc(OC)cc2,-6.421608413,0.364819412,2,G3,580.806,8.936,172.586,42,6,0,6,18,232,2,0,0,2,71.06,253.6509583,4.20E-07,954.0631804
A-2176,"1,4-dimethyl 2-[(E)-2-{2-oxo-1-[(2-oxo-2,3-dihydro-1H-1,3-benzodiazol-5-yl)carbamoyl]propyl}diazen-1-yl]benzene-1,4-dicarboxylate","InChI=1S/C21H19N5O7/c1-10(27)17(18(28)22-12-5-7-14-16(9-12)24-21(31)23-14)26-25-15-8-11(19(29)32-2)4-6-13(15)20(30)33-3/h4-9,17H,1-3H3,(H,22,28)(H2,23,24,31)",KEZJTZQNDCLRDB-UHFFFAOYSA-N,COC(=O)c1ccc(C(=O)OC)c(c1)N=NC(C(C)=O)C(=O)Nc2ccc3NC(=O)Nc3c2,-6.314069371,0,1,G1,453.411,2.1094,115.6551,33,9,3,12,7,170,3,0,0,3,172.14,185.5498482,1.898331746,1338.267208
A-2177,2-decyloxirane,"InChI=1S/C12H24O/c1-2-3-4-5-6-7-8-9-10-12-11-13-12/h12H,2-11H2,1H3",MPGABYXKKCLIRW-UHFFFAOYSA-N,CCCCCCCCCCC1CO1,-5.92315685,0,1,G1,184.323,3.916,56.967,13,1,0,1,9,78,0,1,1,1,12.53,82.86132836,1.634412439,107.6921041
A-2178,2-dodecyloxirane,"InChI=1S/C14H28O/c1-2-3-4-5-6-7-8-9-10-11-12-14-13-15-14/h14H,2-13H2,1H3",IOHJQSFEAYDZGF-UHFFFAOYSA-N,CCCCCCCCCCCCC1CO1,-5.984684801,0.321726338,2,G3,212.377,4.6962,66.201,15,1,0,1,11,90,0,1,1,1,12.53,95.59121259,1.618257053,129.30039
A-2179,"Decahydrospiro[furan-2(3H),5'-[4,7]methano[5h]indene]","InChI=1S/C13H20O/c1-3-10-9-7-12(11(10)4-1)13(8-9)5-2-6-14-13/h9-12H,1-8H2",JDJZAKLOMAHING-UHFFFAOYSA-N,C1COC2(C1)CC3CC2C4CCCC34,-5.94156112,0,1,G1,192.302,2.9917,54.962,14,1,0,1,0,78,0,4,4,4,9.23,86.20877702,1.687833347,253.9611777
A-2180,ethenyl[(ethenyldimethylsilyl)oxy]dimethylsilane,"InChI=1S/C8H18OSi2/c1-7-10(3,4)9-11(5,6)8-2/h7-8H,1-2H2,3-6H3",BITPLIXHRASDQB-UHFFFAOYSA-N,C[Si](C)(O[Si](C)(C)C=C)C=C,-5.954482552,0,1,G1,186.403,2.8636,56.443,11,1,0,3,4,64,0,0,0,0,9.23,72.03681654,4.233343581,143.4749933
A-2181,"2-[1-(2-hydroxy-3,5-dimethylphenyl)-2-methylpropyl]-4,6-dimethylphenol","InChI=1S/C20H26O2/c1-11(2)18(16-9-12(3)7-14(5)19(16)21)17-10-13(4)8-15(6)20(17)22/h7-11,18,21-22H,1-6H3",SZAQZZKNQILGPU-UHFFFAOYSA-N,CC(C)C(c1cc(C)cc(C)c1O)c2cc(C)cc(C)c2O,-6.16734062,0,1,G1,298.426,5.11938,91.8426,22,2,2,2,3,118,2,0,0,2,40.46,132.9965017,2.725118345,641.8388116
A-2183,"1,3-dimethyl 5-[(E)-2-{2-oxo-1-[(2-oxo-2,3-dihydro-1H-1,3-benzodiazol-5-yl)carbamoyl]propyl}diazen-1-yl]benzene-1,3-dicarboxylate","InChI=1S/C21H19N5O7/c1-10(27)17(18(28)22-13-4-5-15-16(9-13)24-21(31)23-15)26-25-14-7-11(19(29)32-2)6-12(8-14)20(30)33-3/h4-9,17H,1-3H3,(H,22,28)(H2,23,24,31)",IHRACTUONPFMSI-UHFFFAOYSA-N,COC(=O)c1cc(cc(c1)C(=O)OC)N=NC(C(C)=O)C(=O)Nc2ccc3NC(=O)Nc3c2,-6.377738451,0,1,G1,453.411,2.1094,115.6551,33,9,3,12,7,170,3,0,0,3,172.14,185.5498482,1.86969618,1304.017208
A-2184,"5,7-dihydroxy-2-(3-hydroxy-4-methoxyphenyl)-4H-chromen-4-one","InChI=1S/C16H12O6/c1-21-13-3-2-8(4-10(13)18)14-7-12(20)16-11(19)5-9(17)6-15(16)22-14/h2-7,17-19H,1H3",MBNGWHIJMBWFHU-UHFFFAOYSA-N,COc1ccc(cc1O)C2=CC(=O)c3c(O)cc(O)cc3O2,-6.198752558,0,1,G1,300.266,2.5854,79.4664,22,6,3,6,2,112,3,0,0,3,100.13,123.9976894,2.241391566,925.8027286
A-2186,"tris(2-[bis(2-hydroxyethyl)amino]ethan-1-ol); 6-({bis[(5-carboxypentyl)amino]-1,3,5-triazin-2-yl}amino)hexanoic acid","InChI=1S/C21H36N6O6.3C6H15NO3/c28-16(29)10-4-1-7-13-22-19-25-20(23-14-8-2-5-11-17(30)31)27-21(26-19)24-15-9-3-6-12-18(32)33;3*8-4-1-7(2-5-9)3-6-10/h1-15H2,(H,28,29)(H,30,31)(H,32,33)(H3,22,23,24,25,26,27);3*8-10H,1-6H2",CAQVCPKFGUCELS-UHFFFAOYSA-N,OCCN(CCO)CCO.OCCN(CCO)CCO.OCCN(CCO)CCO.OC(=O)CCCCCNc1nc(NCCCCCC(O)=O)nc(NCCCCCC(O)=O)n1,-6.683201134,0,1,G1,916.125,-2.1618,236.6997,63,21,15,24,39,372,1,0,0,1,378.45,371.1902155,-9.66E-07,993.2159293
A-2187,"3,3,4,4,5,5,6,6,7,7,8,8,8-tridecafluorooctyl prop-2-enoate","InChI=1S/C11H7F13O2/c1-2-5(25)26-4-3-6(12,13)7(14,15)8(16,17)9(18,19)10(20,21)11(22,23)24/h2H,1,3-4H2",VPKQPPJQTZJZDB-UHFFFAOYSA-N,FC(F)(F)C(F)(F)C(F)(F)C(F)(F)C(F)(F)C(F)(F)CCOC(=O)C=C,-6.354159334,0,1,G1,418.149,4.8445,56.563,26,2,0,15,8,154,0,0,0,0,26.3,135.1260967,5.846860267,534.6985936
A-2188,bis(8-methylnonyl) phenyl phosphite,"InChI=1S/C26H47O3P/c1-24(2)18-12-7-5-9-16-22-27-30(29-26-20-14-11-15-21-26)28-23-17-10-6-8-13-19-25(3)4/h11,14-15,20-21,24-25H,5-10,12-13,16-19,22-23H2,1-4H3",SXXILWLQSQDLDL-UHFFFAOYSA-N,CC(C)CCCCCCCOP(OCCCCCCCC(C)C)Oc1ccccc1,-6.382029914,0.321780564,2,G3,438.633,9.3187,130.974,30,3,0,4,20,174,1,0,0,1,27.69,187.8305773,2.167870746,454.4268691
A-2190,oxotitanium; sulfuric acid,"InChI=1S/H2O4S.O.Ti/c1-5(2,3)4;;/h(H2,1,2,3,4);;",ZYPJORZNHDXKSD-UHFFFAOYSA-N,O[S](O)(=O)=O.O=[Ti],-5.961394278,0.102223995,3,G5,161.945,-0.7741,14.8639,7,3,2,7,0,42,0,0,0,0,91.67,52.02806713,0,102.041844
A-2193,"2-methyl-9,10-dihydroanthracene-9,10-dione","InChI=1S/C15H10O2/c1-9-6-7-12-13(8-9)15(17)11-5-3-2-4-10(11)14(12)16/h2-8H,1H3",NJWGQARXZDRHCD-UHFFFAOYSA-N,Cc1ccc2C(=O)c3ccccc3C(=O)c2c1,-6.117146249,0,1,G1,222.243,2.77042,64.486,17,2,0,2,0,82,2,0,1,3,34.14,98.90053672,2.33049094,653.7214378
A-2200,"1-N,4-N-diphenylbenzene-1,4-diamine","InChI=1S/C18H16N2/c1-3-7-15(8-4-1)19-17-11-13-18(14-12-17)20-16-9-5-2-6-10-16/h1-14,19-20H",UTGQNNCQYDRXCH-UHFFFAOYSA-N,N(c1ccccc1)c2ccc(Nc3ccccc3)cc2,-6.239449641,0,1,G1,260.34,5.1738,85.8914,20,2,2,2,4,98,3,0,0,3,24.06,118.6453159,1.6862844,585.51805
A-2201,"2,6-dimethyl naphthalene-2,6-dicarboxylate","InChI=1S/C14H12O4/c1-17-13(15)11-5-3-10-8-12(14(16)18-2)6-4-9(10)7-11/h3-8H,1-2H3",GYUVMLBYMPKZAZ-UHFFFAOYSA-N,COC(=O)c1ccc2cc(ccc2c1)C(=O)OC,-6.211736201,0.044865714,2,G3,244.246,2.413,66.627,18,4,0,4,2,92,2,0,0,2,52.6,104.1229708,2.480588831,560.970143
A-2205,"dialuminium tris[2-(2,4,5,7-tetrabromo-6-oxido-3-oxoxanthen-9-yl)benzoate]","InChI=1S/3C20H8Br4O5.2Al/c3*21-11-5-9-13(7-3-1-2-4-8(7)20(27)28)10-6-12(22)17(26)15(24)19(10)29-18(9)14(23)16(11)25;;/h3*1-6,25H,(H,27,28);;/q;;;2*+3/p-6",JNDCLPVZJSPREA-UHFFFAOYSA-H,[Al+3].[Al+3].[O-]C(=O)c1ccccc1C2=C3C=C(Br)C(=O)C(=C3Oc4c(Br)c([O-])c(Br)cc24)Br.[O-]C(=O)c5ccccc5C6=C7C=C(Br)C(=O)C(=C7Oc8c(Br)c([O-])c(Br)cc68)Br.[O-]C(=O)c9ccccc9C%10=C%11C=C(Br)C(=O)C(=C%11Oc%12c(Br)c([O-])c(Br)cc%10%12)Br,-7.143562702,0,1,G1,1991.601,14.3941,368.8635,89,15,0,29,6,438,6,0,6,12,280.2,621.2832965,1.71E-07,4591.556833
A-2206,"1,4-dihydroxy-9,10-dihydroanthracene-9,10-dione","InChI=1S/C14H8O4/c15-9-5-6-10(16)12-11(9)13(17)7-3-1-2-4-8(7)14(12)18/h1-6,15-16H",GUEIZVNYDFNHJU-UHFFFAOYSA-N,Oc1ccc(O)c2C(=O)c3ccccc3C(=O)c12,-6.253493517,0.085391661,6,G5,240.214,1.8732,63.0786,18,4,2,4,0,88,2,0,1,3,74.6,102.1240621,2.409415067,640.935334
A-2210,"1,2-bis(propan-2-yl)naphthalene","InChI=1S/C16H20/c1-11(2)14-10-9-13-7-5-6-8-15(13)16(14)12(3)4/h5-12H,1-4H3",IAUKWGFWINVWKS-UHFFFAOYSA-N,CC(C)c1ccc2ccccc2c1C(C)C,-6.230113619,0.047760796,3,G5,212.336,5.0866,72.126,16,0,0,0,2,84,2,0,0,2,0,98.30272034,2.789289725,492.3645117
A-2214,dioctylstannanone,"InChI=1S/2C8H17.O.Sn/c2*1-3-5-7-8-6-4-2;;/h2*1,3-8H2,2H3;;",LQRUPWUPINJLMU-UHFFFAOYSA-N,CCCCCCCC[Sn](=O)CCCCCCCC,-6.478515993,0.448668829,2,G3,361.158,6.1294,82.8065,18,1,0,2,14,108,0,0,0,0,17.07,122.2435705,3.124621333,161.9357738
A-2217,"4-{4-[4-(4-methoxyphenyl)piperazin-1-yl]phenyl}-4,5-dihydro-1H-1,2,4-triazol-5-one","InChI=1S/C19H21N5O2/c1-26-18-8-6-16(7-9-18)23-12-10-22(11-13-23)15-2-4-17(5-3-15)24-14-20-21-19(24)25/h2-9,14H,10-13H2,1H3,(H,21,25)",SEHQVBVJJRRRSG-UHFFFAOYSA-N,COc1ccc(cc1)N2CCN(CC2)c3ccc(cc3)N4C=NNC4=O,-6.488909265,0,1,G1,351.41,1.8958,101.6047,26,6,1,7,4,134,3,1,1,4,66.39,150.9860871,1.410144485,906.1074681
A-2218,"1-(4-chlorophenyl)-3-(3,4-dichlorophenyl)urea","InChI=1S/C13H9Cl3N2O/c14-8-1-3-9(4-2-8)17-13(19)18-10-5-6-11(15)12(16)7-10/h1-7H,(H2,17,18,19)",ICUTUKXCWQYESQ-UHFFFAOYSA-N,Clc1ccc(NC(=O)Nc2ccc(Cl)c(Cl)c2)cc1,-6.45772642,0.520696343,2,G2,315.587,5.2908,80.5554,19,1,2,6,2,98,2,0,0,2,41.13,125.0244846,2.006424902,599.3373665
A-2221,"1,1-bis(tert-butylperoxy)-3,3,5-trimethylcyclohexane","InChI=1S/C17H34O4/c1-13-10-16(8,9)12-17(11-13,20-18-14(2,3)4)21-19-15(5,6)7/h13H,10-12H2,1-9H3",NALFRYPTRXKZPN-UHFFFAOYSA-N,CC1CC(C)(C)CC(C1)(OOC(C)(C)C)OOC(C)(C)C,-6.480660768,0.460307841,4,G5,302.455,5.0223,83.373,21,4,0,4,4,126,0,1,1,1,36.92,129.8852653,2.872403013,317.6797208
A-2225,"(1R,4E,9S)-4,11,11-trimethyl-8-methylidenebicyclo[7.2.0]undec-4-ene","InChI=1S/C15H24/c1-11-6-5-7-12(2)13-10-15(3,4)14(13)9-8-11/h6,13-14H,2,5,7-10H2,1,3-4H3/b11-6+/t13-,14-/m1/s1",NPNUFJAVOOONJE-GFUGXAQUSA-N,C\C1=C/CCC(=C)[C@H]2CC(C)(C)[C@@H]2CC1,-6.337261665,0.014322591,2,G3,204.357,4.7252,66.743,15,0,0,0,0,84,0,1,2,2,0,94.45757226,2.119623126,293.1601712
A-2229,"1,1'-(2,3-dimethylbutane-2,3-diyl)dibenzene","InChI=1S/C18H22/c1-17(2,15-11-7-5-8-12-15)18(3,4)16-13-9-6-10-14-16/h5-14H,1-4H3",HGTUJZTUQFXBIH-UHFFFAOYSA-N,CC(C)(c1ccccc1)C(C)(C)c2ccccc2,-6.474168897,0,1,G1,238.374,4.942,78.936,18,0,0,0,3,94,2,0,0,2,0,110.67815,2.466536213,442.5762241
A-2231,2-(benzyloxy)naphthalene,"InChI=1S/C17H14O/c1-2-6-14(7-3-1)13-18-17-11-10-15-8-4-5-9-16(15)12-17/h1-12H,13H2",WLTCCDHHWYAMCG-UHFFFAOYSA-N,C(Oc1ccc2ccccc2c1)c3ccccc3,-6.477673979,0.230365419,2,G3,234.298,4.4188,74.722,18,1,0,1,3,88,3,0,0,3,9.23,106.6486492,1.787376195,643.8355605
A-2232,"6-Bromo-3-methyl-3H-dibenz[f,ij]isoquinoline-2,7-dione","InChI=1S/C17H10BrNO2/c1-19-13-7-6-12(18)16-15(13)11(8-14(19)20)9-4-2-3-5-10(9)17(16)21/h2-8H,1H3",QTNAUUGQZYCWGQ-UHFFFAOYSA-N,CN1C(=O)C=C2c3ccccc3C(=O)c4c(Br)ccc1c24,-6.680445321,0,1,G1,340.176,3.5124,85.7575,21,3,0,4,0,102,3,0,1,4,39.07,128.5144262,2.349565223,1001.578121
A-2233,3-hydroxy-N-(3-nitrophenyl)-2-naphthamide,"InChI=1S/C17H12N2O4/c20-16-9-12-5-2-1-4-11(12)8-15(16)17(21)18-13-6-3-7-14(10-13)19(22)23/h1-10,20H,(H,18,21)",YZJSKRBKHCLMQC-UHFFFAOYSA-N,Oc1cc2ccccc2cc1C(=O)Nc3cccc(c3)[N+]([O-])=O,-6.643865624,0,1,G1,308.293,3.7059,86.6624,23,4,2,6,3,114,3,0,0,3,92.47,130.6936977,1.927630276,921.3653597
A-2235,lanthanum(+3) cation; oxygen(-2) anion,InChI=1S/2La.3O/q2*+3;3*-2,MRELNEQAGSRDBK-UHFFFAOYSA-N,[O--].[O--].[O--].[La+3].[La+3],-6.670353837,0,1,G1,325.809,-0.3564,2.0595,5,0,0,5,0,24,0,0,0,0,85.5,86.01814517,0,4.854752972
A-2236,"bis(2,4-dichloro-5-nitrophenyl) carbonate",InChI=1S/C13H4Cl4N2O7/c14-5-1-7(16)11(3-9(5)18(21)22)25-13(20)26-12-4-10(19(23)24)6(15)2-8(12)17/h1-4H,CVUDBPILLYLOSC-UHFFFAOYSA-N,[O-][N+](=O)c1cc(OC(=O)Oc2cc(c(Cl)cc2Cl)[N+]([O-])=O)c(Cl)cc1Cl,-6.812907461,0,1,G1,441.994,5.6944,92.8848,26,7,0,13,4,136,2,0,0,2,121.81,163.7610684,2.273897321,861.6939412
A-2238,"Terphenyl, hydrogenated","InChI=1S/C18H22/c1-3-7-15(8-4-1)17-11-13-18(14-12-17)16-9-5-2-6-10-16/h1,3,5,9,11-16H,2,4,6-8,10H2",TVBYFUMVFJKKNJ-UHFFFAOYSA-N,C1CC=CC(C1)c2ccc(cc2)C3CCC=CC3,-6.591929049,0.058880076,2,G3,238.374,5.334,77.906,18,0,0,0,2,94,1,0,2,3,0,110.4198401,1.736105834,435.6110441
A-2240,octadec-9-en-1-yl dihydrogen phosphate,"InChI=1S/C18H36O.H3O4P/c1-2-3-4-5-6-7-8-9-10-11-12-13-14-15-16-17-18-19;1-5(2,3)4/h9-10,19H,2-8,11-18H2,1H3;(H3,1,2,3,4)/b10-9-;",JGVOASSDYQIBIF-KVVVOXFISA-N,CCCCCCCC\C=C/CCCCCCCCO.O[P](O)(O)=O,-6.785897843,0,1,G1,366.479,5.0876,100.8007,24,2,4,6,15,146,0,0,0,0,97.99,147.9860408,0,293.5195827
A-2241,4-tert-butylphenol; formaldehyde,"InChI=1S/C10H14O.CH2O/c1-10(2,3)8-4-6-9(11)7-5-8;1-2/h4-7,11H,1-3H3;1H2",LZDOYVMSNJBLIM-UHFFFAOYSA-N,CC(C)(C)c1ccc(O)cc1.C=O,-6.493940207,0,1,G1,180.247,2.5048,53.9278,13,2,1,2,0,72,1,0,0,1,37.3,79.2177007,6.71E-07,243.7879433
A-2243,mercury,InChI=1S/Hg,QSHDDOUJBYECFT-UHFFFAOYSA-N,[Hg],-6.554121251,0,1,G1,200.59,-0.0025,0,1,0,0,1,0,2,0,0,0,0,0,28.00040585,0,0
A-2244,"1-[(E)-2-(2,4-dimethylphenyl)diazen-1-yl]naphthalen-2-ol","InChI=1S/C18H16N2O/c1-12-7-9-16(13(2)11-12)19-20-18-15-6-4-3-5-14(15)8-10-17(18)21/h3-11,19H,1-2H3/b20-18-",YPXOPAFVVHXQDP-ZZEZOPTASA-N,Cc1ccc(N\N=C2/C(=O)C=Cc3ccccc23)c(C)c1,-6.705444298,0,1,G1,276.339,3.71554,86.5587,21,3,1,3,2,104,2,0,1,3,41.46,123.5595586,1.956098408,772.537836
A-2245,methyl myristate,"InChI=1S/C15H30O2/c1-3-4-5-6-7-8-9-10-11-12-13-14-15(16)17-2/h3-14H2,1-2H3",ZAZKJZBWRNNLDS-UHFFFAOYSA-N,CCCCCCCCCCCCCC(=O)OC,-6.649738161,0,1,G1,242.403,4.8605,73.094,17,2,0,2,12,102,0,0,0,0,26.3,107.123508,2.961268147,166.3047549
A-2246,(4-anilino-1-naphthyl){bis[4-(dimethylamino)phenyl]}methanol,"InChI=1S/C33H33N3O/c1-35(2)27-18-14-24(15-19-27)33(37,25-16-20-28(21-17-25)36(3)4)31-22-23-32(30-13-9-8-12-29(30)31)34-26-10-6-5-7-11-26/h5-23,34,37H,1-4H3",WNDULEJVCPEASN-UHFFFAOYSA-N,CN(C)c1ccc(cc1)C(O)(c2ccc(cc2)N(C)C)c3ccc(Nc4ccccc4)c5ccccc35,-6.989135552,0,1,G1,487.647,6.9996,157.3115,37,4,2,4,7,186,5,0,0,5,38.74,218.9728241,1.71223612,1439.736873
A-2248,N-{2-[(2-benzamidophenyl)disulfanyl]phenyl}benzamide,"InChI=1S/C26H20N2O2S2/c29-25(19-11-3-1-4-12-19)27-21-15-7-9-17-23(21)31-32-24-18-10-8-16-22(24)28-26(30)20-13-5-2-6-14-20/h1-18H,(H,27,29)(H,28,30)",ZHMIOPLMFZVSHY-UHFFFAOYSA-N,O=C(Nc1ccccc1SSc2ccccc2NC(=O)c3ccccc3)c4ccccc4,-6.978287061,1.110924375,2,G2,456.592,6.9906,133.3884,32,4,2,6,7,158,4,0,0,4,58.2,194.4015207,1.466900184,1117.701721
A-2250,"N,N-DIBUTYLDODECANAMIDE","InChI=1S/C20H41NO/c1-4-7-10-11-12-13-14-15-16-17-20(22)21(18-8-5-2)19-9-6-3/h4-19H2,1-3H3",MFARGUPPFBTESX-UHFFFAOYSA-N,CCCCCCCCCCCC(=O)N(CCCC)CCCC,-7.016412077,0,1,G1,311.554,6.3361,98.24,22,1,0,2,16,132,0,0,0,0,20.31,139.594507,3.613822573,231.8617432
A-2251,(2-methoxy-5-nitrophenyl) acetate,"InChI=1S/C9H9NO5/c1-6(11)15-9-5-7(10(12)13)3-4-8(9)14-2/h3-5H,1-2H3",XBFBLYSAWSLPRY-UHFFFAOYSA-N,COc1ccc(cc1OC(C)=O)[N+]([O-])=O,-2.946604067,0,1,G1,211.173,1.5287,50.9574,15,5,0,6,3,80,1,0,0,1,78.67,85.56781774,3.123368127,401.4892192
A-2252,Copper; methanesulfonic acid,"InChI=1S/CH4O3S.Cu/c1-5(2,3)4;/h1H3,(H,2,3,4);",SDFNZYMSEOUVIF-UHFFFAOYSA-N,[Cu].C[S](O)(=O)=O,0.732330182,0,1,G1,159.653,-0.4985,17.4726,6,2,1,5,0,43,0,0,0,0,54.37,46.96350731,0,93.96160537
A-2253,4-methylbenzoyl 4-methylbenzene-1-carboperoxoate,"InChI=1S/C16H14O4/c1-11-3-7-13(8-4-11)15(17)19-20-16(18)14-9-5-12(2)6-10-14/h3-10H,1-2H3",AGKBXKFWMQLFGZ-UHFFFAOYSA-N,Cc1ccc(cc1)C(=O)OOC(=O)c2ccc(C)cc2,-6.798351882,0,1,G1,270.284,3.23224,73.189,20,4,0,4,2,102,2,0,0,2,52.6,116.4276958,1.943757809,554.4300615
A-2255,2-cyclohexyl-6-[(3-cyclohexyl-2-hydroxy-5-methylphenyl)methyl]-4-methylphenol,"InChI=1S/C27H36O2/c1-18-13-22(26(28)24(15-18)20-9-5-3-6-10-20)17-23-14-19(2)16-25(27(23)29)21-11-7-4-8-12-21/h13-16,20-21,28-29H,3-12,17H2,1-2H3",AKNMPWVTPUHKCG-UHFFFAOYSA-N,Cc1cc(Cc2cc(C)cc(C3CCCCC3)c2O)c(O)c(c1)C4CCCCC4,-6.979034273,0.547804152,5,G4,392.583,7.40084,120.1456,29,2,2,2,4,156,2,2,2,4,40.46,175.5394342,1.667119887,783.826898
A-2257,"1,2-bis(2-ethylhexyl) benzene-1,2-dicarboxylate","InChI=1S/C24H38O4/c1-5-9-13-19(7-3)17-27-23(25)21-15-11-12-16-22(21)24(26)28-18-20(8-4)14-10-6-2/h11-12,15-16,19-20H,5-10,13-14,17-18H2,1-4H3",BJQHLKABXJIVAM-UHFFFAOYSA-N,CCCCC(CC)COC(=O)c1ccccc1C(=O)OCC(CC)CCCC,-6.978908353,0.613829359,7,G4,390.564,6.433,113.619,28,4,0,4,14,158,1,0,0,1,52.6,170.5504958,2.690590456,530.7228098
A-2258,"1,2-bis(propan-2-yl)benzene; 1,3-bis(propan-2-yl)benzene; 1,4-bis(propan-2-yl)benzene","InChI=1S/C12H18/c1-9(2)11-7-5-6-8-12(11)10(3)4/h5-10H,1-4H3",OKIRBHVFJGXOIS-UHFFFAOYSA-N,CC(C)c1ccccc1C(C)C,-6.602799271,0,1,G1,162.276,3.9334,54.62,12,0,0,0,2,66,1,0,0,1,0,75.62105581,3.086388779,218.9701524
A-2259,"1,3-diisopropylbenzene","InChI=1S/C12H18/c1-9(2)11-6-5-7-12(8-11)10(3)4/h5-10H,1-4H3",UNEATYXSUBPPKP-UHFFFAOYSA-N,CC(C)c1cccc(c1)C(C)C,-6.602799271,0,1,G1,162.276,3.9334,54.62,12,0,0,0,2,66,1,0,0,1,0,75.62105581,2.95842191,222.7201524
A-2260,"(Z)-N-(1,3-dihydroxyoctadecan-2-yl)octadec-9-enamide","InChI=1S/C36H71NO3/c1-3-5-7-9-11-13-15-17-18-20-22-24-26-28-30-32-36(40)37-34(33-38)35(39)31-29-27-25-23-21-19-16-14-12-10-8-6-4-2/h17-18,34-35,38-39H,3-16,19-33H2,1-2H3,(H,37,40)/b18-17-",MJQIARGPQMNBGT-ZCXUNETKSA-N,CCCCCCCCCCCCCCCC(O)C(CO)NC(=O)CCCCCCC\C=C/CCCCCCCC,-6.451761881,0,1,G1,565.968,10.3432,174.7873,40,3,3,4,32,238,0,0,0,0,69.56,250.1224738,3.575734366,536.1362883
A-2262,hexadecanoic acid,"InChI=1S/C16H32O2/c1-2-3-4-5-6-7-8-9-10-11-12-13-14-15-16(17)18/h2-15H2,1H3,(H,17,18)",IPCSVZSSVZVIGE-UHFFFAOYSA-N,CCCCCCCCCCCCCCCC(O)=O,-6.806908841,0,1,G1,256.43,5.5523,77.9478,18,1,1,2,14,108,0,0,0,0,37.3,113.1691386,2.922965609,177.9357738
A-2264,"4,7-Methano-1H-indenol, 3a,4,5,6,7,7a-hexahydro-, acetate","InChI=1S/C12H16O2/c1-7(13)14-11-5-4-10-8-2-3-9(6-8)12(10)11/h5,8-10,12H,2-4,6H2,1H3",KARQHHMQOVRDNL-UHFFFAOYSA-N,CC(=O)OC1=CCC2C3CCC(C3)C12,-3.009726571,0,1,G1,192.258,2.4994,52.277,14,2,0,2,1,76,0,2,3,3,26.3,84.32158512,1.801304813,305.4435901
A-2267,"octamethyl-1,3,5,7,2,4,6,8-tetraoxatetrasilocane","InChI=1S/C8H24O4Si4/c1-13(2)9-14(3,4)11-16(7,8)12-15(5,6)10-13/h1-8H3",HMMGMWAXVFQUOA-UHFFFAOYSA-N,C[Si]1(C)O[Si](C)(C)O[Si](C)(C)O[Si](C)(C)O1,-6.953686491,0.408190598,5,G5,296.62,2.8736,74.268,16,4,0,8,0,96,0,1,1,1,36.92,103.2527728,2.977060745,205.2118756
A-2268,3-octanoyloxypropyl octanoate,"InChI=1S/C19H36O4/c1-3-5-7-9-11-14-18(20)22-16-13-17-23-19(21)15-12-10-8-6-4-2/h3-17H2,1-2H3",XBBMJUWOCGWHRP-UHFFFAOYSA-N,CCCCCCCC(=O)OCCCOC(=O)CCCCCCC,-7.516526119,0,1,G1,328.493,5.1839,93.287,23,4,0,4,16,136,0,0,0,0,52.6,141.8583437,3.299477984,261.0942
A-2269,"1-(3,3-dimethylcyclohexyl)pent-4-en-1-one","InChI=1S/C13H22O/c1-4-5-8-12(14)11-7-6-9-13(2,3)10-11/h4,11H,1,5-10H2,2-3H3",OHYNEUHOSWPWLZ-UHFFFAOYSA-N,CC1(C)CCCC(C1)C(=O)CCC=C,-4.77931051,0,1,G1,194.318,3.7381,60.177,14,1,0,1,4,80,0,1,1,1,17.07,87.58464431,2.432012946,215.2754526
A-2270,9-ethyl-9H-carbazole,"InChI=1S/C14H13N/c1-2-15-13-9-5-3-7-11(13)12-8-4-6-10-14(12)15/h3-10H,2H2,1H3",PLAZXGNBGZYJSA-UHFFFAOYSA-N,CCn1c2ccccc2c3ccccc13,-6.813503151,0,1,G1,195.265,3.8144,65.118,15,1,0,1,1,74,3,0,0,3,4.93,88.94374832,2.616909071,566.1070933
A-2271,N-ethyl-N-{2-[1-(2-methylpropoxy)ethoxy]ethyl}-4-[(E)-2-phenyldiazen-1-yl]aniline,"InChI=1S/C22H31N3O2/c1-5-25(15-16-26-19(4)27-17-18(2)3)22-13-11-21(12-14-22)24-23-20-9-7-6-8-10-20/h6-14,18-19H,5,15-17H2,1-4H3",BATVZJPOLFSGTD-UHFFFAOYSA-N,CCN(CCOC(C)OCC(C)C)c1ccc(cc1)N=Nc2ccccc2,-7.090503766,0,1,G1,369.509,5.9635,111.151,27,5,0,5,11,146,2,0,0,2,46.42,162.5716204,1.831959654,671.7170624