ID,Name,InChI,InChIKey,SMILES,Solubility,SD,Ocurrences,Group,MolWt,MolLogP,MolMR,HeavyAtomCount,NumHAcceptors,NumHDonors,NumHeteroatoms,NumRotatableBonds,NumValenceElectrons,NumAromaticRings,NumSaturatedRings,NumAliphaticRings,RingCount,TPSA,LabuteASA,BalabanJ,BertzCT
A-2272,zirconium(4+) ion diphosphate,"InChI=1S/4H3O4P.3Zr/c4*1-5(2,3)4;;;/h4*(H3,1,2,3,4);;;/q;;;;3*+4/p-12",LEHFSLREWWMLPU-UHFFFAOYSA-B,[Zr+4].[Zr+4].[Zr+4].[O-][P]([O-])([O-])=O.[O-][P]([O-])([O-])=O.[O-][P]([O-])([O-])=O.[O-][P]([O-])([O-])=O,-7.338158893,1.387982075,3,G4,653.552,-11.3059,30.426,23,16,0,23,0,128,0,0,0,0,345,184.8658229,-2.84E-08,291.9826351
A-2273,"3-[(E)-4-[[5,6-di(phenyl)-1,2,4-triazin-3-yl]sulfanyl]but-2-enyl]sulfanyl-5,6-di(phenyl)-1,2,4-triazine","InChI=1S/C34H26N6S2/c1-5-15-25(16-6-1)29-31(27-19-9-3-10-20-27)37-39-33(35-29)41-23-13-14-24-42-34-36-30(26-17-7-2-8-18-26)32(38-40-34)28-21-11-4-12-22-28/h1-22H,23-24H2/b14-13+",IBPFDTBQAMYTIU-BUHFOSPRSA-N,C(Sc1nnc(c2ccccc2)c(n1)c3ccccc3)\C=C\CSc4nnc(c5ccccc5)c(n4)c6ccccc6,-7.025125555,0,1,G1,582.758,8.1652,171.986,42,8,0,8,10,204,6,0,0,6,77.34,252.9880546,1.118985548,1634.48984
A-2274,"1-(4-tert-butylphenyl)-3-(4-methoxyphenyl)propane-1,3-dione","InChI=1S/C20H22O3/c1-20(2,3)16-9-5-14(6-10-16)18(21)13-19(22)15-7-11-17(23-4)12-8-15/h5-12H,13H2,1-4H3",XNEFYCZVKIDDMS-UHFFFAOYSA-N,COc1ccc(cc1)C(=O)CC(=O)c2ccc(cc2)C(C)(C)C,-7.060548154,0,1,G1,310.393,4.4484,91.414,23,3,0,3,5,120,2,0,0,2,43.37,136.8446237,2.068724403,689.1617995
A-2277,"2,2,4,6,6-pentamethyl-3,5-dioxa-2,4,6-trisilaheptane","InChI=1S/C7H21O2Si3/c1-10(8-11(2,3)4)9-12(5,6)7/h1-7H3",SWGZAKPJNWCPRY-UHFFFAOYSA-N,C[Si](O[Si](C)(C)C)O[Si](C)(C)C,-7.044345696,0,1,G1,221.501,2.8074,60.48,12,2,0,5,4,73,0,0,0,0,18.46,80.38894464,3.830355464,120.5673646
A-2282,"5-hydroxy-2-(3-hydroxy-4-methoxyphenyl)-7-{[(2S,3R,4S,5S,6R)-3,4,5-trihydroxy-6-({[(2R,3R,4R,5R,6S)-3,4,5-trihydroxy-6-methyloxan-2-yl]oxy}methyl)oxan-2-yl]oxy}-4H-chromen-4-one","InChI=1S/C28H32O15/c1-10-21(32)23(34)25(36)27(40-10)39-9-19-22(33)24(35)26(37)28(43-19)41-12-6-14(30)20-15(31)8-17(42-18(20)7-12)11-3-4-16(38-2)13(29)5-11/h3-8,10,19,21-30,32-37H,9H2,1-2H3/t10-,19+,21-,22+,23+,24-,25+,26+,27+,28+/m0/s1",GZSOSUNBTXMUFQ-YFAPSIMESA-N,COc1ccc(cc1O)C2=CC(=O)c3c(O)cc(O[C@@H]4O[C@H](CO[C@@H]5O[C@@H](C)[C@H](O)[C@@H](O)[C@H]5O)[C@@H](O)[C@H](O)[C@H]4O)cc3O2,-7.505541952,0,1,G1,608.549,-1.0897,143.4184,43,15,8,15,7,234,3,2,2,5,238.2,242.7906821,1.361811921,1507.492076
A-2283,"1,3,5-tris[[(2R)-oxiran-2-yl]methyl]-1,3,5-triazinane-2,4,6-trione","InChI=1S/C12H15N3O6/c16-10-13(1-7-4-19-7)11(17)15(3-9-6-21-9)12(18)14(10)2-8-5-20-8/h7-9H,1-6H2/t7-,8-,9-/m1/s1",OUPZKGBUJRBPGC-IWSPIJDZSA-N,O=C1N(C[C@@H]2CO2)C(=O)N(C[C@@H]3CO3)C(=O)N1C[C@@H]4CO4,-2.468825327,0,1,G1,297.267,-2.6319,68.442,21,9,0,9,6,114,1,3,3,4,103.59,117.8124491,1.808249375,604.5390165
A-2284,"4,11-diamino-2-(3-methoxypropyl)-1H,2H,3H,5H,10H-naphtho[2,3-f]isoindole-1,3,5,10-tetrone","InChI=1S/C20H17N3O5/c1-28-8-4-7-23-19(26)13-14(20(23)27)16(22)12-11(15(13)21)17(24)9-5-2-3-6-10(9)18(12)25/h2-3,5-6H,4,7-8,21-22H2,1H3",WBCXRDHKXHADQF-UHFFFAOYSA-N,COCCCN1C(=O)c2c(N)c3C(=O)c4ccccc4C(=O)c3c(N)c2C1=O,-7.323792769,0.428666248,2,G3,379.372,0.465,109.7198,28,8,2,8,4,142,4,0,0,4,134.48,156.7947121,2.247527723,1370.536183
A-2287,docosanoic acid,"InChI=1S/C22H44O2/c1-2-3-4-5-6-7-8-9-10-11-12-13-14-15-16-17-18-19-20-21-22(23)24/h2-21H2,1H3,(H,23,24)",UKMSUNONTOPOIO-UHFFFAOYSA-N,CCCCCCCCCCCCCCCCCCCCCC(O)=O,-7.32811446,1.747425011,2,G2,340.592,7.8929,105.6498,24,1,1,2,20,144,0,0,0,0,37.3,151.3587913,2.965378939,250.3544698
A-2288,3-phenylpropyl benzoate,"InChI=1S/C16H16O2/c17-16(15-11-5-2-6-12-15)18-13-7-10-14-8-3-1-4-9-14/h1-6,8-9,11-12H,7,10,13H2",ONPVMQLRVWKFFL-UHFFFAOYSA-N,O=C(OCCCc1ccccc1)c2ccccc2,-4.800973789,0,1,G1,240.302,3.4762,71.4875,18,2,0,2,5,92,2,0,0,2,26.3,107.2233331,1.715497932,476.9648515
A-2289,2-methylheptan-1-ol,"InChI=1S/C8H18O/c1-3-4-5-6-8(2)7-9/h8-9H,3-7H2,1-2H3",QZESEQBMSFFHRY-UHFFFAOYSA-N,CCCCCC(C)CO,-2.528127071,0,1,G1,130.231,2.1951,40.3918,9,1,1,1,5,56,0,0,0,0,20.23,58.08807958,2.876622595,52.52932501
A-2292,palladium (II) di(4-oxopent-2-en-2-oate),"InChI=1S/2C5H7O2.Pd/c2*1-4(6)3-5(2)7;/h2*3H,1-2H3;/q2*-1;+2",PLYDYQGKZLDFTI-UHFFFAOYSA-N,[Pd++].CC(=O)[CH-]C(C)=O.CC(=O)[CH-]C(C)=O,-7.438461097,0,1,G1,304.638,0.73488,51.324,15,4,0,5,4,88,0,0,0,0,68.28,103.4549159,-1.80E-07,195.8069433
A-2293,"3,4,9,10-Perylenetetracarboxylic diimide","InChI=1S/C24H10N2O4/c27-21-13-5-1-9-10-2-6-15-20-16(24(30)26-23(15)29)8-4-12(18(10)20)11-3-7-14(22(28)25-21)19(13)17(9)11/h1-8H,(H,25,27,28)(H,26,29,30)",KJOLVZJFMDVPGB-UHFFFAOYSA-N,O=C1NC(=O)c2ccc3c4ccc5C(=O)NC(=O)c6ccc(c7ccc1c2c37)c4c56,-7.591458634,0,1,G1,390.354,3.0162,118.8174,30,4,2,6,0,140,7,0,0,7,99.86,164.5648244,1.947057901,1796.555362
A-2294,"1-hydroxy-4-[(4-methylphenyl)amino]-9,10-dihydroanthracene-9,10-dione","InChI=1S/C21H15NO3/c1-12-6-8-13(9-7-12)22-16-10-11-17(23)19-18(16)20(24)14-4-2-3-5-15(14)21(19)25/h2-11,22-23H,1H3",LJFWQNJLLOFIJK-UHFFFAOYSA-N,Cc1ccc(Nc2ccc(O)c3C(=O)c4ccccc4C(=O)c23)cc1,-7.549181312,0,1,G1,329.355,4.21962,95.8755,25,4,2,4,2,122,3,0,1,4,66.4,144.3017269,1.880584531,1019.811198
A-2295,oxygen(-2) anion; zirconium(+4) cation; sulfate,"InChI=1S/H2O4S.O.Zr/c1-5(2,3)4;;/h(H2,1,2,3,4);;/q;-2;+4/p-2",QRTRRDMHGTZPBF-UHFFFAOYSA-L,[O--].[Zr+4].[O-][S]([O-])(=O)=O,-7.706047479,0,1,G1,203.286,-1.4593,11.1611,7,4,0,7,0,40,0,0,0,0,108.76,59.73519357,-8.00E-08,91.24856185
A-2297,"2-ethyl-2-[2-(6-methoxy-3,4-dihydro-2H-naphthalen-1-ylidene)ethyl]cyclopentane-1,3-dione","InChI=1S/C20H24O3/c1-3-20(18(21)9-10-19(20)22)12-11-14-5-4-6-15-13-16(23-2)7-8-17(14)15/h7-8,11,13H,3-6,9-10,12H2,1-2H3/b14-11+",OMXFYKCGCDGYNC-SDNWHVSQSA-N,CCC1(C\C=C2/CCCc3cc(OC)ccc23)C(=O)CCC1=O,-4.172504242,0,1,G1,312.409,4.1334,90.498,23,3,0,3,4,122,1,1,2,3,43.37,137.2759168,1.898753624,653.4644012
A-2298,octadecane,"InChI=1S/C18H38/c1-3-5-7-9-11-13-15-17-18-16-14-12-10-8-6-4-2/h3-18H2,1-2H3",RZJRJXONCZWCBN-UHFFFAOYSA-N,CCCCCCCCCCCCCCCCCC,-7.627539949,0,1,G1,254.502,7.2678,85.22,18,0,0,0,15,110,0,0,0,0,0,116.943267,2.862306209,112
A-2299,"8,8-dimethyl-7-propan-2-yl-6,10-dioxaspiro[4.5]decane","InChI=1S/C13H24O2/c1-10(2)11-12(3,4)9-14-13(15-11)7-5-6-8-13/h10-11H,5-9H2,1-4H3",NKDJGNROVOPIGT-UHFFFAOYSA-N,CC(C)C1OC2(CCCC2)OCC1(C)C,-3.524243771,0,1,G1,212.333,3.3543,60.643,15,2,0,2,1,88,0,2,2,2,18.46,93.33398455,2.12088371,226.6904521
A-2301,"2-ethylhexyl 4-({bis[(4-{[(2-ethylhexyl)oxy]carbonyl}phenyl)amino]-1,3,5-triazin-2-yl}amino)benzoate","InChI=1S/C48H66N6O6/c1-7-13-16-34(10-4)31-58-43(55)37-19-25-40(26-20-37)49-46-52-47(50-41-27-21-38(22-28-41)44(56)59-32-35(11-5)17-14-8-2)54-48(53-46)51-42-29-23-39(24-30-42)45(57)60-33-36(12-6)18-15-9-3/h19-30,34-36H,7-18,31-33H2,1-6H3,(H3,49,50,51,52,53,54)",JGUMTYWKIBJSTN-UHFFFAOYSA-N,CCCCC(CC)COC(=O)c1ccc(Nc2nc(Nc3ccc(cc3)C(=O)OCC(CC)CCCC)nc(Nc4ccc(cc4)C(=O)OCC(CC)CCCC)n2)cc1,-8.216478376,0.382321596,4,G5,823.092,12.222,239.7666,60,12,3,12,27,324,4,0,0,4,153.66,356.5898553,1.485749356,1657.309011
A-2304,methyl palmitate,"InChI=1S/C17H34O2/c1-3-4-5-6-7-8-9-10-11-12-13-14-15-16-17(18)19-2/h3-16H2,1-2H3",FLIACVVOZYBSBS-UHFFFAOYSA-N,CCCCCCCCCCCCCCCC(=O)OC,-7.830038235,0,1,G1,270.457,5.6407,82.328,19,2,0,2,14,114,0,0,0,0,26.3,119.8533922,2.969254449,189.7010862
A-2307,"Bis(2-hydroxyethyl) 2-[(6-oxobenzo[c][2,1]benzoxaphosphinin-6-yl)methyl]butanedioate","InChI=1S/C21H23O8P/c22-9-11-27-20(24)13-15(21(25)28-12-10-23)14-30(26)19-8-4-2-6-17(19)16-5-1-3-7-18(16)29-30/h1-8,15,22-23H,9-14H2",MJOBQUIJUFKMPR-UHFFFAOYSA-N,OCCOC(=O)CC(C[P]1(=O)Oc2ccccc2c3ccccc13)C(=O)OCCO,-4.461779562,0,1,G1,434.381,1.7267,108.8101,30,8,2,9,9,160,2,0,1,3,119.36,173.3955628,1.91476044,957.5274785
A-2308,"2,2-dimethyl-1,3-dihydroperimidine","InChI=1S/C13H14N2/c1-13(2)14-10-7-3-5-9-6-4-8-11(15-13)12(9)10/h3-8,14-15H,1-2H3",DETLTZYXZWIXIB-UHFFFAOYSA-N,CC1(C)Nc2cccc3cccc(N1)c23,-2.929898895,0,1,G1,198.269,3.4133,65.2724,15,2,2,2,0,76,2,0,1,3,24.06,89.30178721,2.362182776,486.297033
A-2309,potassium 16-methylheptadecanoate,"InChI=1S/C18H36O2.K/c1-17(2)15-13-11-9-7-5-3-4-6-8-10-12-14-16-18(19)20;/h17H,3-16H2,1-2H3,(H,19,20);/q;+1/p-1",NGNZTXNWCGRXKL-UHFFFAOYSA-M,[K+].CC(C)CCCCCCCCCCCCCCC([O-])=O,-8.146901524,3.870145136,3,G4,322.574,1.8577,84.483,21,2,0,3,15,120,0,0,0,0,40.13,174.8215875,0,217.2638658
A-2312,2-[(4-{[2-(4-cyclohexylphenoxy)ethyl](ethyl)amino}-2-methylphenyl)methylidene]propanedinitrile,"InChI=1S/C27H31N3O/c1-3-30(26-12-9-25(21(2)17-26)18-22(19-28)20-29)15-16-31-27-13-10-24(11-14-27)23-7-5-4-6-8-23/h9-14,17-18,23H,3-8,15-16H2,1-2H3",NQAJBKZEQYYFGK-UHFFFAOYSA-N,CCN(CCOc1ccc(cc1)C2CCCCC2)c3ccc(C=C(C#N)C#N)c(C)c3,-8.386094856,0.309045391,3,G5,413.565,6.37858,126.032,31,4,0,4,8,160,2,1,1,3,60.05,185.9257331,1.565908148,957.0216309
A-2313,"2,4-ditert-butyl-6-(3,5-ditert-butyl-2-hydroxyphenyl)phenol","InChI=1S/C28H42O2/c1-25(2,3)17-13-19(23(29)21(15-17)27(7,8)9)20-14-18(26(4,5)6)16-22(24(20)30)28(10,11)12/h13-16,29-30H,1-12H3",GDGDLBOVIAWEAD-UHFFFAOYSA-N,CC(C)(C)c1cc(c(O)c(c1)C(C)(C)C)c2cc(cc(c2O)C(C)(C)C)C(C)(C)C,-6.889187497,0.862137935,2,G2,410.642,7.9548,130.0076,30,2,2,2,1,166,2,0,0,2,40.46,183.9160387,3.027121035,857.5506636
A-2317,1-[(E)-2-(2-methoxyphenyl)diazen-1-yl]naphthalen-2-ol,"InChI=1S/C17H14N2O2/c1-21-16-9-5-4-8-14(16)18-19-17-13-7-3-2-6-12(13)10-11-15(17)20/h2-11,18H,1H3/b19-17-",BBBYRJLYBLPEBL-ZPHPHTNESA-N,COc1ccccc1N\N=C2/C(=O)C=Cc3ccccc23,-8.926016432,0,1,G1,278.311,3.1073,83.6367,21,4,1,4,3,104,2,0,1,3,50.69,122.3081617,1.959508225,747.9602572
A-2318,methyl octadecanoate,"InChI=1S/C19H38O2/c1-3-4-5-6-7-8-9-10-11-12-13-14-15-16-17-18-19(20)21-2/h3-18H2,1-2H3",HPEUJPJOZXNMSJ-UHFFFAOYSA-N,CCCCCCCCCCCCCCCCCC(=O)OC,-8.997839085,0,1,G1,298.511,6.4209,91.562,21,2,0,2,16,126,0,0,0,0,26.3,132.5832764,2.97751359,213.6118931
A-2319,"1,2-Benzenedicarboxylic acid, di-C9-11-branched alkyl esters, C10-rich","InChI=1S/C28H46O4/c1-23(2)17-11-7-5-9-15-21-31-27(29)25-19-13-14-20-26(25)28(30)32-22-16-10-6-8-12-18-24(3)4/h13-14,19-20,23-24H,5-12,15-18,21-22H2,1-4H3",ZVFDTKUVRCTHQE-UHFFFAOYSA-N,CC(C)CCCCCCCOC(=O)c1ccccc1C(=O)OCCCCCCCC(C)C,-9.419539808,0,1,G1,446.672,7.9934,132.087,32,4,0,4,18,182,1,0,0,1,52.6,196.0102643,2.264773914,581.0744729
A-2320,divanadium pentaoxide,InChI=1S/5O.2V,GNTDGMZSJNCJKK-UHFFFAOYSA-N,O=[V](=O)O[V](=O)=O,-2.303614127,0,1,G1,181.879,-0.5486,3.831,7,5,0,7,2,40,0,0,0,0,77.51,48.38095382,3.773284861,134.5191757
A-2321,"Propylidynetrimethanol, ethoxylated, esters with acrylic acid","InChI=1S/C21H32O9/c1-5-18(22)28-12-9-25-15-21(8-4,16-26-10-13-29-19(23)6-2)17-27-11-14-30-20(24)7-3/h5-7H,1-3,8-17H2,4H3",MTPIZGPBYCHTGQ-UHFFFAOYSA-N,CCC(COCCOC(=O)C=C)(COCCOC(=O)C=C)COCCOC(=O)C=C,-2.687445856,0.912447327,2,G2,428.478,1.6202,108.649,30,9,0,9,19,170,0,0,0,0,106.59,177.1351219,4.515298452,482.6020917
A-2322,4-[(4-hydroxyphenyl)(pyridin-2-yl)methyl]phenol,"InChI=1S/C18H15NO2/c20-15-8-4-13(5-9-15)18(17-3-1-2-12-19-17)14-6-10-16(21)11-7-14/h1-12,18,20-21H",LJROKJGQSPMTKB-UHFFFAOYSA-N,Oc1ccc(cc1)C(c2ccc(O)cc2)c3ccccn3,-4.523907797,0,1,G1,277.323,3.673,81.3956,21,3,2,3,3,104,3,0,0,3,53.35,122.7186491,2.10614863,660.9668515
A-2324,oxygen(-2) anion; vanadium; pentahydroxide; pentaphosphate,"InChI=1S/5H3O4P.5H2O.5O.6V/c5*1-5(2,3)4;;;;;;;;;;;;;;;;/h5*(H3,1,2,3,4);5*1H2;;;;;;;;;;;/q;;;;;;;;;;5*-2;;;;;;/p-20",DZHUTCDIQDURCC-UHFFFAOYSA-A,[OH-].[OH-].[OH-].[OH-].[OH-].[O--].[O--].[O--].[O--].[O--].[V].[V].[V].[V].[V].[V].[O-][P]([O-])([O-])=O.[O-][P]([O-])([O-])=O.[O-][P]([O-])([O-])=O.[O-][P]([O-])([O-])=O.[O-][P]([O-])([O-])=O,-1.350363781,0,1,G1,945.532,-15.616,51.144,41,25,0,41,0,270,0,0,0,0,723.75,298.9155864,-5.85E-09,392.2994005
A-2326,disilver(1+) carbonate,"InChI=1S/CH2O3.Ag/c2-1(3)4;/h(H2,2,3,4);",LKZMBDSASOBTPN-UHFFFAOYSA-N,[Ag].OC(O)=O,-3.452021679,0,1,G1,169.892,0.2199,10.6536,5,1,2,4,0,35,0,0,0,0,57.53,44.12264349,0,29.87430298
A-2329,potassium dodecyl hydrogen phosphate,"InChI=1S/C12H27O4P.K/c1-2-3-4-5-6-7-8-9-10-11-12-16-17(13,14)15;/h2-12H2,1H3,(H2,13,14,15);/q;+1/p-1",MJHORFXTDAGQEU-UHFFFAOYSA-M,[K+].CCCCCCCCCCCCO[P](O)([O-])=O,-3.784486057,0,1,G1,304.408,0.3886,67.6213,18,3,1,6,12,104,0,0,0,0,69.59,153.9278024,0,208.2540912
A-2331,aluminium(3+) ion trifluoride,InChI=1S/Al.3FH/h;3*1H/q+3;;;/p-3,KLZUFWVZNOTSEM-UHFFFAOYSA-K,[F-].[F-].[F-].[Al+3],-4.199879315,0,1,G1,83.976,-9.3688,5.754,4,0,0,4,0,24,0,0,0,0,0,32.42797965,0,3.245112498
A-2334,2-(4-phenylbenzoyl)benzoic acid,"InChI=1S/C20H14O3/c21-19(17-8-4-5-9-18(17)20(22)23)16-12-10-15(11-13-16)14-6-2-1-3-7-14/h1-13H,(H,22,23)",NBYNVBRXIUUSIG-UHFFFAOYSA-N,OC(=O)c1ccccc1C(=O)c2ccc(cc2)c3ccccc3,-4.828233467,0,1,G1,302.329,4.2828,88.7118,23,2,1,3,4,112,3,0,0,3,54.37,133.3927537,1.94042493,849.5699681
A-2335,"1,3,5,7-tetranitro-1,3,5,7-tetrazocane",InChI=1S/C4H8N8O8/c13-9(14)5-1-6(10(15)16)3-8(12(19)20)4-7(2-5)11(17)18/h1-4H2,UZGLIIJVICEWHF-UHFFFAOYSA-N,[O-][N+](=O)N1CN(CN(CN(C1)[N+]([O-])=O)[N+]([O-])=O)[N+]([O-])=O,-4.82511681,0.080611092,3,G5,296.156,-2.1952,54.8016,20,8,0,16,4,112,0,1,1,1,185.52,108.3600279,3.018981601,352.1928095
A-2336,"1-[(1E,5Z,9Z)-2,5,10-trimethylcyclododeca-1,5,9-trien-1-yl]ethan-1-one; 1-[(1R)-2,5,10-trimethylcyclododeca-2,5,9-trien-1-yl]ethan-1-one; 1-[(1R)-4,9-dimethyl-12-methylidenecyclododeca-4,8-dien-1-yl]ethan-1-one; 1-[(1S)-2,5,10-trimethylcyclododeca-2,5,9-trien-1-yl]ethan-1-one; 1-[(1S)-4,9-dimethyl-12-methylidenecyclododeca-4,8-dien-1-yl]ethan-1-one","InChI=1S/5C17H26O/c5*1-13-7-5-6-8-14(2)10-12-17(16(4)18)15(3)11-9-13/h7-8H,5-6,9-12H2,1-4H3;2*7-8,11,17H,5-6,9-10,12H2,1-4H3;2*7-8,17H,3,5-6,9-12H2,1-2,4H3/b13-7-,14-8-,17-15+;;;;/t;4*17-/m.1010/s1",IBZATQUGDOLKJX-GPRJLHHYSA-N,CC(=O)[C@H]1CCC(=CCCC=C(C)CCC1=C)C.CC(=O)[C@@H]2CCC(=CCCC=C(C)CCC2=C)C.CC(=O)[C@H]3CCC(=CCCC=C(C)CC=C3C)C.CC(=O)[C@@H]4CCC(=CCCC=C(C)CC=C4C)C.CC/5=C/CC\C=C(C)/CC/C(=C(/C)CC5)C(C)=O,-5.449126022,0,1,G1,1231.97,25.1171,392.705,90,5,0,5,5,500,0,0,5,5,85.35,552.8521225,5.62E-07,2616.386545
A-2337,2-[(E)-2-(1-cyano-1-methylpropyl)diazen-1-yl]-2-methylbutanenitrile,"InChI=1S/C10H16N4/c1-5-9(3,7-11)13-14-10(4,6-2)8-12/h5-6H2,1-4H3",AVTLBBWTUPQRAY-UHFFFAOYSA-N,CCC(C)(N=NC(C)(CC)C#N)C#N,-2.696191526,0,1,G1,192.266,2.82316,53.474,14,4,0,4,4,76,0,0,0,0,72.3,85.25566726,4.761626319,266.2243092
A-2338,(2S)-2-aminopentanedioic acid; 2-(bis(2-hydroxyethyl)amino)ethanol,"InChI=1S/C6H15NO3.C5H9NO4/c8-4-1-7(2-5-9)3-6-10;6-3(5(9)10)1-2-4(7)8/h8-10H,1-6H2;3H,1-2,6H2,(H,7,8)(H,9,10)/t;3-/m.0/s1",TUBPSFQENHCYBW-HVDRVSQOSA-N,N[C@@H](CCC(O)=O)C(O)=O.OCCN(CCO)CCO,0.111437809,0,1,G1,296.32,-2.4716,70.1784,20,7,6,9,10,120,0,0,0,0,164.55,116.7884407,0,248.8915325
A-2342,"4-(2,3,4-trihydroxybenzoyl)phenyl 5-oxo-6-[(1E)-tetraaza-1,3-dien-1-yl]-5,8-dihydronaphthalene-1-sulfonate","InChI=1S/C23H16N4O8S/c24-26-27-25-17-10-8-14-15(21(17)30)2-1-3-19(14)36(33,34)35-13-6-4-12(5-7-13)20(29)16-9-11-18(28)23(32)22(16)31/h1-7,9-11,24,28,31-32H,8H2",WVRFNJXNBZHDGZ-UHFFFAOYSA-N,Oc1ccc(c(O)c1O)C(=O)c2ccc(O[S](=O)(=O)c3cccc4C(=O)C(=CCc34)N=NN=N)cc2,-5.105290731,0,1,G1,508.468,3.82297,121.6879,36,10,4,13,7,182,3,0,1,4,199.13,202.9822811,1.58772436,1578.337069
A-2345,"2-chlorobuta-1,3-diene","InChI=1S/C4H5Cl/c1-3-4(2)5/h3H,1-2H2",YACLQRRMGMJLJV-UHFFFAOYSA-N,ClC(=C)C=C,-2.550925455,0,1,G1,88.537,1.9249,25.19,5,0,0,1,1,28,0,0,0,0,0,36.75813753,3.204805418,54.6682905
A-2346,(ethenesulfonyl)methanesulfonylethene,"InChI=1S/C5H8O4S2/c1-3-10(6,7)5-11(8,9)4-2/h3-4H,1-2,5H2",IJHIIHORMWQZRQ-UHFFFAOYSA-N,C=C[S](=O)(=O)C[S](=O)(=O)C=C,-3.91989545,0,1,G1,196.249,0.0605,43.1006,11,4,0,6,4,64,0,0,0,0,68.28,66.07061018,4.810208617,309.9436564
A-2347,tetrafluoromethane,"InChI=1S/CF4/c2-1(3,4)5",TXEYQDLBPFQVAA-UHFFFAOYSA-N,FC(F)(F)F,-3.670339628,0,1,G1,88.003,1.4757,7.163,5,0,0,4,0,32,0,0,0,0,0,25.40139264,3.023715784,19.11941548
A-2348,4-(2-phenylpropan-2-yl)phenol,"InChI=1S/C15H16O/c1-15(2,12-6-4-3-5-7-12)13-8-10-14(16)11-9-13/h3-11,16H,1-2H3",QBDSZLJBMIMQRS-UHFFFAOYSA-N,CC(C)(c1ccccc1)c2ccc(O)cc2,-4.096484707,0,1,G1,212.292,3.7181,66.6768,16,1,1,1,2,82,2,0,0,2,20.23,96.37755742,2.425705911,454.5534417
A-2350,"4,6-dichloro-5-nitro-2-(propylsulfanyl)pyrimidine","InChI=1S/C7H7Cl2N3O2S/c1-2-3-15-7-10-5(8)4(12(13)14)6(9)11-7/h2-3H2,1H3",DDEDQHVHVPJFAC-UHFFFAOYSA-N,CCCSc1nc(Cl)c(c(Cl)n1)[N+]([O-])=O,-4.386944624,0,1,G1,268.125,3.1937,59.7214,15,5,0,8,4,82,1,0,0,1,68.92,100.3481436,3.025515417,365.4932012
A-2351,"disodium 2-(2,4,5,7-tetrabromo-6-oxido-3-oxo-3H-xanthen-9-yl)benzoate","InChI=1S/C20H8Br4O5.2Na/c21-11-5-9-13(7-3-1-2-4-8(7)20(27)28)10-6-12(22)17(26)15(24)19(10)29-18(9)14(23)16(11)25;;/h1-6,25H,(H,27,28);;/q;2*+1/p-2",SEACYXSIPDVVMV-UHFFFAOYSA-L,[Na+].[Na+].[O-]C(=O)c1ccccc1C2=C3C=C(Br)C(=O)C(=C3Oc4c(Br)c([O-])c(Br)cc24)Br,-0.840017595,0,1,G1,691.859,-0.9401,119.1185,31,5,0,11,2,146,2,0,2,4,93.4,253.5845413,1.71E-06,1370.393242
A-2352,methyl methanesulfonate,"InChI=1S/C2H6O3S/c1-5-6(2,3)4/h1-2H3",MBABOKRGFJTBAE-UHFFFAOYSA-N,CO[S](C)(=O)=O,-0.041921413,0.150514998,2,G3,110.134,-0.4076,21.8528,6,3,0,4,1,38,0,0,0,0,43.37,37.05214063,3.850621639,110.7548875
A-2355,"2-{3-[(8E)-pentadec-8-en-1-yl]phenoxymethyl}oxirane; 2-{3-[(8E,11E)-pentadeca-8,11,14-trien-1-yl]phenoxymethyl}oxirane; 2-{3-[(8E,11E)-pentadeca-8,11-dien-1-yl]phenoxymethyl}oxirane","InChI=1S/C24H38O2.C24H36O2.C24H34O2/c3*1-2-3-4-5-6-7-8-9-10-11-12-13-14-16-22-17-15-18-23(19-22)25-20-24-21-26-24/h7-8,15,17-19,24H,2-6,9-14,16,20-21H2,1H3;4-5,7-8,15,17-19,24H,2-3,6,9-14,16,20-21H2,1H3;2,4-5,7-8,15,17-19,24H,1,3,6,9-14,16,20-21H2/b8-7+;2*5-4+,8-7+",OUKSICCLOBOVAZ-XSBYHUFWSA-N,CCCCCC/C=C/CCCCCCCc1cccc(OCC2CO2)c1.CCC/C=C/C/C=C/CCCCCCCc3cccc(OCC4CO4)c3.C=CC/C=C/C/C=C/CCCCCCCc5cccc(OCC6CO6)c5,-6.079851689,0,1,G1,1069.65,19.9497,332.664,78,6,0,6,46,432,3,3,3,6,65.28,476.7902877,2.52E-07,2034.642773
A-2356,N-phenylaniline; formaldehyde; propan-2-one,"InChI=1S/C12H11N.C3H6O.CH2O/c1-3-7-11(8-4-1)13-12-9-5-2-6-10-12;1-3(2)4;1-2/h1-10,13H;1-2H3;1H2",AXEXTEASNRDWCD-UHFFFAOYSA-N,CC(C)=O.C=O.N(c1ccccc1)c2ccccc2,-5.969586401,0,1,G1,257.333,3.8406,79.6427,19,3,1,3,2,100,2,0,0,2,46.17,113.8328345,4.67E-07,413.1898537
A-2357,"2,2,4,4,6,12,15-heptamethyl-6-[(trimethylsilyl)oxy]-3,5,10,13,16-pentaoxa-2,4,6-trisilaheptadecane","InChI=1S/C19H48O6Si4/c1-18(20-3)17-22-19(2)16-21-14-13-15-29(12,24-27(7,8)9)25-28(10,11)23-26(4,5)6/h18-19H,13-17H2,1-12H3",GNXVOWXPZHCCTP-UHFFFAOYSA-N,COC(C)COC(C)COCCC[Si](C)(O[Si](C)(C)C)O[Si](C)(C)O[Si](C)(C)C,-6.287739939,0,1,G1,484.931,5.3265,131.175,29,6,0,10,16,176,0,0,0,0,55.38,184.2534006,4.608611416,452.9607655
A-2359,"ethyl 3,5-dichloro-4-{[(hexadecyloxy)carbonyl]oxy}benzoate","InChI=1S/C26H40Cl2O5/c1-3-5-6-7-8-9-10-11-12-13-14-15-16-17-18-32-26(30)33-24-22(27)19-21(20-23(24)28)25(29)31-4-2/h19-20H,3-18H2,1-2H3",DFMGMJBWBQNZNK-UHFFFAOYSA-N,CCCCCCCCCCCCCCCCOC(=O)Oc1c(Cl)cc(cc1Cl)C(=O)OCC,-7.133803789,0,1,G1,503.507,9.1668,134.7065,33,5,0,7,18,188,1,0,0,1,61.83,209.0004577,2.078120331,670.2549709
A-2361,copper(2+) ion bis((9Z)-octadec-9-enoate),"InChI=1S/2C18H34O2.Cu/c2*1-2-3-4-5-6-7-8-9-10-11-12-13-14-15-16-17-18(19)20;/h2*9-10H,2-8,11-17H2,1H3,(H,19,20);/q;;+2/p-2/b2*10-9-;",SVOAENZIOKPANY-CVBJKYQLSA-L,[Cu++].CCCCCCCC\C=C/CCCCCCCC([O-])=O.CCCCCCCC\C=C/CCCCCCCC([O-])=O,-11.99893786,0,1,G1,626.466,9.5451,168.918,41,4,0,5,30,245,0,0,0,0,80.26,265.6459821,-6.88E-07,523.9279511
A-2362,"(2S,4S)-4-cyclohexylpyrrolidine-2-carboxylic acid hydrochloride","InChI=1S/C11H19NO2.ClH/c13-11(14)10-6-9(7-12-10)8-4-2-1-3-5-8;/h8-10,12H,1-7H2,(H,13,14);1H/t9-,10+;/m1./s1",BHGFUQJUTOVQOS-UXQCFNEQSA-N,Cl.OC(=O)[C@@H]1C[C@H](CN1)C2CCCCC2,0.631268384,0,1,G1,233.739,2.0512,61.3565,15,2,2,4,2,88,0,2,2,2,49.33,97.03572115,1.12E-06,216.6334611
A-2363,2-azabicyclo[2.2.1]hept-5-en-3-one,"InChI=1S/C6H7NO/c8-6-4-1-2-5(3-4)7-6/h1-2,4-5H,3H2,(H,7,8)",DDUFYKNOXPZZIW-UHFFFAOYSA-N,O=C1NC2CC1C=C2,0.936160808,0,1,G1,109.128,0.0609,29.1777,8,1,1,2,0,42,0,1,2,2,29.1,47.57408054,2.348838763,161.9114705