ID,Name,InChI,InChIKey,SMILES,Solubility,SD,Ocurrences,Group,MolWt,MolLogP,MolMR,HeavyAtomCount,NumHAcceptors,NumHDonors,NumHeteroatoms,NumRotatableBonds,NumValenceElectrons,NumAromaticRings,NumSaturatedRings,NumAliphaticRings,RingCount,TPSA,LabuteASA,BalabanJ,BertzCT
A-2643,"1,6-bis(7-methyloctyl) hexanedioate","InChI=1S/C24H46O4/c1-21(2)15-9-5-7-13-19-27-23(25)17-11-12-18-24(26)28-20-14-8-6-10-16-22(3)4/h21-22H,5-20H2,1-4H3",AYWLCKHHUFBVGJ-UHFFFAOYSA-N,CC(C)CCCCCCOC(=O)CCCCC(=O)OCCCCCCC(C)C,-6.600567801,0.5,2,G3,398.628,6.8462,116.232,28,4,0,4,19,166,0,0,0,0,52.6,173.6830543,3.343835774,340.8014379
A-2644,1-(octyloxy)octane,"InChI=1S/C16H34O/c1-3-5-7-9-11-13-15-17-16-14-12-10-8-6-4-2/h3-16H2,1-2H3",NKJOXAZJBOMXID-UHFFFAOYSA-N,CCCCCCCCOCCCCCCCC,-6.384616815,0,1,G1,242.447,5.724,77.571,17,1,0,1,14,104,0,0,0,0,9.23,109.326928,2.846262263,108.6935862
A-2645,1-(vinyloxy)octadecane,"InChI=1S/C20H40O/c1-3-5-6-7-8-9-10-11-12-13-14-15-16-17-18-19-20-21-4-2/h4H,2-3,5-20H2,1H3",QJJDJWUCRAPCOL-UHFFFAOYSA-N,CCCCCCCCCCCCCCCCCCOC=C,-6.472081819,1.115680949,2,G2,296.539,7.408,95.695,21,1,0,1,18,126,0,0,0,0,9.23,134.0970934,2.914743832,188.2774357
A-2646,"2-(3,4-dihydroxyoxolan-2-yl)-2-hydroxyethyl 3-methylheptadecanoate","InChI=1S/C18H36O2.C5H12O6/c1-17(2)15-13-11-9-7-5-3-4-6-8-10-12-14-16-18(19)20;6-1-2(7)3(8)4(9)5(10)11/h17H,3-16H2,1-2H3,(H,19,20);2-11H,1H2/t;2-,3+,4-/m.0/s1",DAPHOROYFQLVHF-DAPNYWPISA-N,CC(C)CCCCCCCCCCCCCCC(O)=O.OC[C@H](O)[C@@H](O)[C@H](O)C(O)O,-6.655742376,0,1,G1,452.629,2.5605,120.4436,31,7,7,8,19,188,0,0,0,0,158.68,187.4949671,0,389.7727607
A-2647,"2-ethylhexyl 2-cyano-3,3-diphenylprop-2-enoate","InChI=1S/C24H27NO2/c1-3-5-12-19(4-2)18-27-24(26)22(17-25)23(20-13-8-6-9-14-20)21-15-10-7-11-16-21/h6-11,13-16,19H,3-5,12,18H2,1-2H3",FMJSMJQBSVNSBF-UHFFFAOYSA-N,CCCCC(CC)COC(=O)C(C#N)=C(c1ccccc1)c2ccccc2,-6.558090281,0,1,G1,361.485,5.77168,108.784,27,3,0,3,9,140,2,0,0,2,50.09,161.8458467,2.334070156,746.6358153
A-2648,"2-fluoro-4-[4-(4-propylcyclohexyl)cyclohexyl]-1-(3,4,5-trifluorophenyl)benzene","InChI=1S/C27H32F4/c1-2-3-17-4-6-18(7-5-17)19-8-10-20(11-9-19)21-12-13-23(24(28)14-21)22-15-25(29)27(31)26(30)16-22/h12-20H,2-11H2,1H3",RHJZNALCKPDGPQ-UHFFFAOYSA-N,CCCC1CCC(CC1)C2CCC(CC2)c3ccc(c(F)c3)c4cc(F)c(F)c(F)c4,-6.636031296,0,1,G1,432.545,8.7903,116.765,31,0,0,4,5,168,2,2,2,4,0,182.6131083,1.378299452,867.0997138
A-2649,2-octyldodecan-1-ol,"InChI=1S/C20H42O/c1-3-5-7-9-11-12-14-16-18-20(19-21)17-15-13-10-8-6-4-2/h20-21H,3-19H2,1-2H3",LEACJMVNYZDSKR-UHFFFAOYSA-N,CCCCCCCCCCC(CO)CCCCCCCC,-6.475024349,0,1,G1,298.555,6.8763,95.7958,21,1,1,1,17,128,0,0,0,0,20.23,134.467385,3.284224046,178.6772278
A-2650,Naphthalic anhydride,InChI=1S/C12H6O3/c13-11-8-5-1-3-7-4-2-6-9(10(7)8)12(14)15-11/h1-6H,GRSMWKLPSNHDHA-UHFFFAOYSA-N,O=C1OC(=O)c2cccc3cccc1c23,-6.29705325,0,1,G1,198.177,2.1504,53.694,15,3,0,3,0,72,2,0,1,3,43.37,85.27371016,2.559690309,550.0887631
A-2651,"3-{[3-(3,5-di-tert-butyl-4-hydroxyphenyl)propanoyl]oxy}-2,2-bis({[3-(3,5-di-tert-butyl-4-hydroxyphenyl)propanoyl]oxy}methyl)propyl 3-(3,5-di-tert-butyl-4-hydroxyphenyl)propanoate","InChI=1S/C73H108O12/c1-65(2,3)49-33-45(34-50(61(49)78)66(4,5)6)25-29-57(74)82-41-73(42-83-58(75)30-26-46-35-51(67(7,8)9)62(79)52(36-46)68(10,11)12,43-84-59(76)31-27-47-37-53(69(13,14)15)63(80)54(38-47)70(16,17)18)44-85-60(77)32-28-48-39-55(71(19,20)21)64(81)56(40-48)72(22,23)24/h33-40,78-81H,25-32,41-44H2,1-24H3",BGYHLZZASRKEJE-UHFFFAOYSA-N,CC(C)(C)c1cc(CCC(=O)OCC(COC(=O)CCc2cc(c(O)c(c2)C(C)(C)C)C(C)(C)C)(COC(=O)CCc3cc(c(O)c(c3)C(C)(C)C)C(C)(C)C)COC(=O)CCc4cc(c(O)c(c4)C(C)(C)C)C(C)(C)C)cc(c1O)C(C)(C)C,-7.07101808,0,1,G1,1177.655,15.8792,341.5802,85,12,4,12,20,472,4,0,0,4,186.12,510.7620537,1.764294572,2473.40154
A-2652,"4-(2,4,4-trimethylpentan-2-yl)-N-[4-(2,4,4-trimethylpentan-2-yl)phenyl]aniline","InChI=1S/C28H43N/c1-25(2,3)19-27(7,8)21-11-15-23(16-12-21)29-24-17-13-22(14-18-24)28(9,10)20-26(4,5)6/h11-18,29H,19-20H2,1-10H3",GQBHYWDCHSZDQU-UHFFFAOYSA-N,CC(C)(C)CC(C)(C)c1ccc(Nc2ccc(cc2)C(C)(C)CC(C)(C)C)cc1,-6.595120185,0,1,G1,393.659,8.8578,130.3627,29,1,1,1,6,160,2,0,0,2,12.03,179.8774333,2.091567019,708.6928454
A-2656,8-ethyl-9-methylheptadecane; 8-methyl-7-propylhexadecane,"InChI=1S/2C20H42/c1-5-8-10-12-13-14-17-19(4)20(16-7-3)18-15-11-9-6-2;1-5-8-10-12-14-15-17-19(4)20(7-3)18-16-13-11-9-6-2/h2*19-20H,5-18H2,1-4H3",BWQCJPOGHSLKTK-UHFFFAOYSA-N,CCCCCCCCC(C)C(CC)CCCCCCC.CCCCCCCCC(C)C(CCC)CCCCCC,-6.75213453,0,1,G1,565.112,15.5196,188.628,40,0,0,0,30,244,0,0,0,0,0,257.9778246,0,425.7542476
A-2657,"N-[2-(2-heptadecyl-4,5-dihydro-1H-imidazol-1-yl)ethyl]octadecanamide; N-{2-[(2-octadecanamidoethyl)amino]ethyl}octadecanamide; bis(acetic acid)","InChI=1S/C40H81N3O2.C40H79N3O.2C2H4O2/c1-3-5-7-9-11-13-15-17-19-21-23-25-27-29-31-33-39(44)42-37-35-41-36-38-43-40(45)34-32-30-28-26-24-22-20-18-16-14-12-10-8-6-4-2;1-3-5-7-9-11-13-15-17-19-21-23-25-27-29-31-33-39-41-35-37-43(39)38-36-42-40(44)34-32-30-28-26-24-22-20-18-16-14-12-10-8-6-4-2;2*1-2(3)4/h41H,3-38H2,1-2H3,(H,42,44)(H,43,45);3-38H2,1-2H3,(H,42,44);2*1H3,(H,3,4)",VGSJTKYUFRVBDY-UHFFFAOYSA-N,CCCCCCCCCCCCCCCCCC(=O)NCCNCCNC(=O)CCCCCCCCCCCCCCCCC.CCCCCCCCCCCCCCCCCC(=O)NCCN1CCN=C1CCCCCCCCCCCCCCCCC.CC(O)=O.CC(O)=O,-7.138082495,0,1,G1,1374.303,23.8529,420.5774,97,8,6,13,73,576,0,0,1,1,189.53,602.2917917,-1.64E-06,1579.740967
A-2658,N-[3-(dimethylamino)propyl]docosanamide,"InChI=1S/C27H56N2O/c1-4-5-6-7-8-9-10-11-12-13-14-15-16-17-18-19-20-21-22-24-27(30)28-25-23-26-29(2)3/h4-26H2,1-3H3,(H,28,30)",MNAZHGAWPCLLGX-UHFFFAOYSA-N,CCCCCCCCCCCCCCCCCCCCCC(=O)NCCCN(C)C,-6.628141567,0.977121255,2,G2,424.758,7.8762,134.1947,30,2,1,3,24,180,0,0,0,0,32.34,189.698964,3.099998933,343.7547672
A-2659,"Octadecan-1-ol, ethoxylated","InChI=1S/C20H41O2/c1-2-3-4-5-6-7-8-9-10-11-12-13-14-15-16-17-19-22-20-18-21/h2-20H2,1H3",PSEGVHKUPXNGGJ-UHFFFAOYSA-N,CCCCCCCCCCCCCCCCCCOCC[O],-6.496301265,0,1,G1,313.546,6.695,95.9185,22,1,0,2,19,133,0,0,0,0,29.13,139.5809302,2.912160947,162.5460575
A-2661,Talc (Mg3H2(SiO3)4),InChI=1S/3Mg.2HO3Si.2O3Si/c;;;4*1-4(2)3/h;;;2*1H;;/q3*+2;2*-1;2*-2,KNXVOGGZOFOROK-UHFFFAOYSA-N,[Mg++].[Mg++].[Mg++].O[Si]([O-])=O.O[Si]([O-])=O.[O-][Si]([O-])=O.[O-][Si]([O-])=O,-6.578940476,0,1,G1,379.263,-11.3888,47.4616,19,10,2,19,0,96,0,0,0,0,247.1,160.3597943,-1.92E-08,165.0143853
A-2662,"[phenyl(2,4,6-trimethylbenzoyl)phosphoryl](2,4,6-trimethylphenyl)methanone","InChI=1S/C26H27O3P/c1-16-12-18(3)23(19(4)13-16)25(27)30(29,22-10-8-7-9-11-22)26(28)24-20(5)14-17(2)15-21(24)6/h7-15H,1-6H3",GUCYFKSBFREPBC-UHFFFAOYSA-N,Cc1cc(C)c(c(C)c1)C(=O)[P](=O)(C(=O)c2c(C)cc(C)cc2C)c3ccccc3,-6.621667442,0,1,G1,418.473,6.20632,123.6495,30,3,0,4,5,154,3,0,0,3,51.21,178.0777725,2.311000648,1086.693518
A-2663,dialuminium(3+) ion dicalcium pentaoxidandiide,InChI=1S/2Al.2Ca.5O/q2*+3;2*+2;5*-2,HGCYUAJUOYGULZ-UHFFFAOYSA-N,[O--].[O--].[O--].[O--].[O--].[Al+3].[Al+3].[Ca++].[Ca++],-6.330647093,0,1,G1,214.115,-2.1172,26.4485,9,0,0,9,0,40,0,0,0,0,142.5,134.7508069,0,12.91968454
A-2664,dimethoxybis(propan-2-yl)silane,"InChI=1S/C8H20O2Si/c1-7(2)11(9-5,10-6)8(3)4/h7-8H,1-6H3",VHPUZTHRFWIGAW-UHFFFAOYSA-N,CO[Si](OC)(C(C)C)C(C)C,-6.246331133,0,1,G1,176.332,2.5414,49.968,11,2,0,3,4,68,0,0,0,0,18.46,71.14858059,4.464509448,98.65968562
A-2665,dodecanoyl dodecaneperoxoate,"InChI=1S/C24H46O4/c1-3-5-7-9-11-13-15-17-19-21-23(25)27-28-24(26)22-20-18-16-14-12-10-8-6-4-2/h3-22H2,1-2H3",YIVJZNGAASQVEM-UHFFFAOYSA-N,CCCCCCCCCCCC(=O)OOC(=O)CCCCCCCCCCC,-6.600567801,0.238560627,2,G3,398.628,7.8296,115.872,28,4,0,4,20,166,0,0,0,0,52.6,173.6123496,3.317102084,320.514311
A-2666,octyl (2R)-2-(4-chloro-2-methylphenoxy)propanoate,"InChI=1S/C18H27ClO3/c1-4-5-6-7-8-9-12-21-18(20)15(3)22-17-11-10-16(19)13-14(17)2/h10-11,13,15H,4-9,12H2,1-3H3/t15-/m1/s1",QWQMRXFSCXUHMR-OAHLLOKOSA-N,CCCCCCCCOC(=O)[C@@H](C)Oc1ccc(Cl)cc1C,-6.514367091,0,1,G1,326.864,5.31942,90.614,22,3,0,4,10,124,1,0,0,1,35.53,138.5025873,2.242455437,459.6455325
A-2667,silver cyanide,InChI=1S/CN.Ag/c1-2;/q-1;+1,LFAGQMCIGQNPJG-UHFFFAOYSA-N,[Ag+].[C-]#N,-6.126735167,0.979303657,2,G2,133.886,0.09387,4.968,3,1,0,2,0,20,0,0,0,0,23.79,34.76523356,0,9.509775004
A-2668,titanium(2+) ion dihydride,InChI=1S/Ti.2H/q+2;2*-1,KAZWGWWZKAHTKC-UHFFFAOYSA-N,[Ti++].[H-].[H-],-5.697952564,0,1,G1,49.883,0.2225,2.224,1,0,0,1,0,6,0,0,0,0,0,25.34420811,0,2.754887502
A-2669,titanium(4+) ion bis(oxosilanebis(olate)),InChI=1S/2O3Si.Ti/c2*1-4(2)3;/q2*-2;+4,LMYUVIRTIDGPBO-UHFFFAOYSA-N,[Ti+4].[O-][Si]([O-])=O.[O-][Si]([O-])=O,-6.301101648,0,1,G1,200.033,-5.7577,12.881,9,6,0,9,0,48,0,0,0,0,126.38,68.46542593,-7.20E-08,69.05865003
A-2673,"2,2-bis[(nonanoyloxy)methyl]butyl nonanoate","InChI=1S/C33H62O6/c1-5-9-12-15-18-21-24-30(34)37-27-33(8-4,28-38-31(35)25-22-19-16-13-10-6-2)29-39-32(36)26-23-20-17-14-11-7-3/h5-29H2,1-4H3",KDMAJIXYCNOVJB-UHFFFAOYSA-N,CCCCCCCCC(=O)OCC(CC)(COC(=O)CCCCCCCC)COC(=O)CCCCCCCC,-6.841087952,0,1,G1,554.853,9.2642,159.58,39,6,0,6,28,230,0,0,0,0,78.9,240.2426007,4.727341056,524.1685487
A-2674,"2,5-bis(1,1-dimethylpropyl)benzene-1,4-diol","InChI=1S/C16H26O2/c1-7-15(3,4)11-9-14(18)12(10-13(11)17)16(5,6)8-2/h9-10,17-18H,7-8H2,1-6H3",CZNRFEXEPBITDS-UHFFFAOYSA-N,CCC(C)(C)c1cc(O)c(cc1O)C(C)(C)CC,-6.495513117,0,1,G1,250.382,4.473,76.4056,18,2,2,2,4,102,1,0,0,1,40.46,110.6692918,3.379425183,389.2182553
A-2675,diiron(3+) ion distrontium(2+) ion pentaoxidandiide,InChI=1S/2Fe.5O.2Sr/q2*+3;5*-2;2*+2,GKHGYOYJUWWDJG-UHFFFAOYSA-N,[O--].[O--].[O--].[O--].[O--].[Fe+3].[Fe+3].[Sr++].[Sr++],-6.661487316,0,1,G1,366.925,-1.3606,14.9405,9,0,0,9,0,50,0,0,0,0,142.5,148.739477,0,12.91968454
A-2676,zirconium dihydride,InChI=1S/Zr.2H/q+2;2*-1,IUJYJRCMJZIAJY-UHFFFAOYSA-N,[H-].[H-].[Zr++],-6.066512278,0,1,G1,93.24,0.2225,2.224,1,0,0,1,0,6,0,0,0,0,0,29.58633209,0,2.754887502
A-2677,"10,13-dimethyl-17-(2-methyl-1,3-dioxolan-2-yl)-1,2,4,9,10,11,12,13,14,15,16,17-dodecahydrospiro[cyclopenta[a]phenanthrene-3,2'-[1,3]dioxolane]","InChI=1S/C25H36O4/c1-22-10-11-25(28-14-15-29-25)16-17(22)4-5-18-19-6-7-21(24(3)26-12-13-27-24)23(19,2)9-8-20(18)22/h4-5,19-21H,6-16H2,1-3H3",CFZNXPSHLNMZGD-UHFFFAOYSA-N,CC1(OCCO1)C2CCC3C4=CC=C5CC6(CCC5(C)C4CCC23C)OCCO6,-6.700119715,0,1,G1,400.559,4.9916,110.113,29,4,0,4,1,160,0,5,6,6,36.92,174.5378497,1.326371087,756.7850441
A-2678,"[(1S,2R,5S)-5-methyl-2-propan-2-ylcyclohexyl] acetate","InChI=1S/C12H22O2/c1-8(2)11-6-5-9(3)7-12(11)14-10(4)13/h8-9,11-12H,5-7H2,1-4H3/t9-,11+,12-/m0/s1",XHXUANMFYXWVNG-WCQGTBRESA-N,CC(C)[C@H]1CC[C@H](C)C[C@@H]1OC(C)=O,-4.066886933,0,1,G1,198.306,3.0103,56.897,14,2,0,2,2,82,0,1,1,1,26.3,87.02285046,2.583440988,198.4984101
A-2680,Ciaftalan zinc,InChI=1S/C32H16N8.Zn/c1-2-10-18-17(9-1)25-33-26(18)38-28-21-13-5-6-14-22(21)30(35-28)40-32-24-16-8-7-15-23(24)31(36-32)39-29-20-12-4-3-11-19(20)27(34-29)37-25;/h1-16H;/q-2;+2,PODBBOVVOGJETB-UHFFFAOYSA-N,[Zn++].[n-]1c2nc3[n-]c(nc4nc(nc5nc(nc1c6ccccc26)c7ccccc57)c8ccccc48)c9ccccc39,-6.983720983,0,1,G1,577.926,6.1249,153.992,41,6,0,9,0,186,7,0,2,9,105.54,244.9640246,2.56E-06,2192.891097
A-2681,2-{[2-(acetyloxy)ethyl]({4-[(E)-2-(2-chloro-4-nitrophenyl)diazen-1-yl]-3-acetamidophenyl})amino}ethyl acetate,"InChI=1S/C22H24ClN5O7/c1-14(29)24-22-13-17(27(8-10-34-15(2)30)9-11-35-16(3)31)4-7-21(22)26-25-20-6-5-18(28(32)33)12-19(20)23/h4-7,12-13H,8-11H2,1-3H3,(H,24,29)",ORDDDNUMJXPGOC-UHFFFAOYSA-N,CC(=O)Nc1cc(ccc1N=Nc2ccc(cc2Cl)[N+]([O-])=O)N(CCOC(C)=O)CCOC(C)=O,-6.963714867,0,1,G1,505.915,4.5546,128.5071,35,10,1,13,11,186,2,0,0,2,152.8,205.5622909,2.332903257,1119.172836
A-2684,"(2R)-2-[(2R,3R,4S)-3,4-bis(octadecanoyloxy)oxolan-2-yl]-2-hydroxyethyl octadecanoate (2R)-2-[(2R,3R,4S)-3,4-dihydroxyoxolan-2-yl]-2-hydroxyethyl octadecanoate (2R)-2-hydroxy-2-[(2R,3R,4S)-3-hydroxy-4-(octadecanoyloxy)oxolan-2-yl]ethyl (9Z)-octadec-9-enoate","InChI=1S/C60H114O8/c1-4-7-10-13-16-19-22-25-28-31-34-37-40-43-46-49-56(62)65-53-55(67-57(63)50-47-44-41-38-35-32-29-26-23-20-17-14-11-8-5-2)60-59(54(61)52-66-60)68-58(64)51-48-45-42-39-36-33-30-27-24-21-18-15-12-9-6-3/h54-55,59-61H,4-53H2,1-3H3/t54-,55?,59+,60-/m1/s1",IJCWFDPJFXGQBN-BIFNRIDTSA-N,CCCCCCCCCCCCCCCCCC(=O)OCC(OC(=O)CCCCCCCCCCCCCCCCC)[C@H]1OC[C@@H](O)[C@@H]1OC(=O)CCCCCCCCCCCCCCCCC,-7.284910561,0,1,G1,963.564,17.8974,285.1038,68,8,1,8,53,402,0,1,1,1,108.36,420.9979856,2.451570896,1097.443364
A-2685,"(2R)-2-[(2R,3R,4S)-3,4-dihydroxyoxolan-2-yl]-2-hydroxyethyl hexadecanoate","InChI=1S/C22H42O6/c1-2-3-4-5-6-7-8-9-10-11-12-13-14-15-20(25)27-17-19(24)22-21(26)18(23)16-28-22/h18-19,21-24,26H,2-17H2,1H3/t18-,19?,21+,22-/m1/s1",IYFATESGLOUGBX-CBOZIWPYSA-N,CCCCCCCCCCCCCCCC(=O)OCC(O)[C@H]1OC[C@@H](O)[C@@H]1O,-6.905873561,0,1,G1,402.572,3.4924,109.0314,28,6,3,6,17,166,0,1,1,1,96.22,170.1685181,1.863690307,389.2232673
A-2687,"1,2,4-tris(2-methyldodecyl) benzene-1,2,4-tricarboxylate","InChI=1S/C48H84O6/c1-40(2)31-25-19-13-7-10-16-22-28-36-52-46(49)43-34-35-44(47(50)53-37-29-23-17-11-8-14-20-26-32-41(3)4)45(39-43)48(51)54-38-30-24-18-12-9-15-21-27-33-42(5)6/h34-35,39-42H,7-33,36-38H2,1-6H3",IGQFKXMQIMEIJV-UHFFFAOYSA-N,CC(C)CCCCCCCCCCOC(=O)c1ccc(C(=O)OCCCCCCCCCCC(C)C)c(c1)C(=O)OCCCCCCCCCCC(C)C,-7.18023716,0,1,G1,757.194,14.6577,226.4625,54,6,0,6,36,312,1,0,0,1,78.9,332.5841739,2.553093509,1076.972612
A-2688,"1,3-bis(heptanoyloxy)propan-2-yl heptanoate","InChI=1S/C24H44O6/c1-4-7-10-13-16-22(25)28-19-21(30-24(27)18-15-12-9-6-3)20-29-23(26)17-14-11-8-5-2/h21H,4-20H2,1-3H3",PJHKBYALYHRYSK-UHFFFAOYSA-N,CCCCCCC(=O)OCC(COC(=O)CCCCCC)OC(=O)CCCCCC,-6.933092295,0,1,G1,428.61,5.8958,118.075,30,6,0,6,20,176,0,0,0,0,78.9,182.9581216,4.366932678,420.9771072
A-2689,"1,3-bis[(12-hydroxyoctadecanoyl)oxy]propan-2-yl 12-hydroxyoctadecanoate","InChI=1S/C57H110O9/c1-4-7-10-31-40-51(58)43-34-25-19-13-16-22-28-37-46-55(61)64-49-54(66-57(63)48-39-30-24-18-15-21-27-36-45-53(60)42-33-12-9-6-3)50-65-56(62)47-38-29-23-17-14-20-26-35-44-52(59)41-32-11-8-5-2/h51-54,58-60H,4-50H2,1-3H3",WCOXQTXVACYMLM-UHFFFAOYSA-N,CCCCCCC(O)CCCCCCCCCCC(=O)OCC(COC(=O)CCCCCCCCCCC(O)CCCCCC)OC(=O)CCCCCCCCCCC(O)CCCCCC,-7.273925856,0,1,G1,939.498,15.6815,274.6054,66,9,3,9,53,392,0,0,0,0,139.59,407.3839127,4.407028858,983.4344512
A-2690,"1,3-bis[(2-ethylhexanoyl)oxy]propan-2-yl 2-ethylhexanoate","InChI=1S/C27H50O6/c1-7-13-16-21(10-4)25(28)31-19-24(33-27(30)23(12-6)18-15-9-3)20-32-26(29)22(11-5)17-14-8-2/h21-24H,7-20H2,1-6H3",DGSZGZSCHSQXFV-UHFFFAOYSA-N,CCCCC(CC)C(=O)OCC(COC(=O)C(CC)CCCC)OC(=O)C(CC)CCCC,-6.97376589,0,1,G1,470.691,6.6338,131.716,33,6,0,6,20,194,0,0,0,0,78.9,202.052948,5.113091319,500.7046204
A-2691,"1,3-bis[(9Z)-octadec-9-enoyloxy]propan-2-yl (9Z)-octadec-9-enoate","InChI=1S/C57H104O6/c1-4-7-10-13-16-19-22-25-28-31-34-37-40-43-46-49-55(58)61-52-54(63-57(60)51-48-45-42-39-36-33-30-27-24-21-18-15-12-9-6-3)53-62-56(59)50-47-44-41-38-35-32-29-26-23-20-17-14-11-8-5-2/h25-30,54H,4-24,31-53H2,1-3H3/b28-25-,29-26-,30-27-",PHYFQTYBJUILEZ-IUPFWZBJSA-N,CCCCCCCC\C=C/CCCCCCCC(=O)OCC(COC(=O)CCCCCCC\C=C/CCCCCCCC)OC(=O)CCCCCCC\C=C/CCCCCCCC,-7.248195509,0,1,G1,885.453,18.0971,270.154,63,6,0,6,50,368,0,0,0,0,78.9,390.9324023,4.392523003,1006.840675
A-2692,"1,6-bis(2-methylheptyl) hexanedioate","InChI=1S/C22H42O4/c1-19(2)13-7-5-11-17-25-21(23)15-9-10-16-22(24)26-18-12-6-8-14-20(3)4/h19-20H,5-18H2,1-4H3",CJFLBOQMPJCWLR-UHFFFAOYSA-N,CC(C)CCCCCOC(=O)CCCCC(=O)OCCCCCC(C)C,-6.869904941,0,1,G1,370.574,6.066,106.998,26,4,0,4,17,154,0,0,0,0,52.6,160.9531701,3.35856782,316.0514103
A-2693,1-(octadecyloxy)octadecane,"InChI=1S/C36H74O/c1-3-5-7-9-11-13-15-17-19-21-23-25-27-29-31-33-35-37-36-34-32-30-28-26-24-22-20-18-16-14-12-10-8-6-4-2/h3-36H2,1-2H3",HBXWUCXDUUJDRB-UHFFFAOYSA-N,CCCCCCCCCCCCCCCCCCOCCCCCCCCCCCCCCCCCC,-7.019520889,0,1,G1,522.987,13.526,169.911,37,1,0,1,34,224,0,0,0,0,9.23,236.6257703,3.004156832,331.6822857
A-2694,"2,2-bis[(heptanoyloxy)methyl]butyl heptanoate (non-preferred name)","InChI=1S/C27H50O6/c1-5-9-12-15-18-24(28)31-21-27(8-4,22-32-25(29)19-16-13-10-6-2)23-33-26(30)20-17-14-11-7-3/h5-23H2,1-4H3",UQJDVLPHTXQTRP-UHFFFAOYSA-N,CCCCCCC(=O)OCC(CC)(COC(=O)CCCCCC)COC(=O)CCCCCC,-6.97376589,0,1,G1,470.691,6.9236,131.878,33,6,0,6,22,194,0,0,0,0,78.9,202.052948,4.781939646,447.4176558
A-2695,"2,2-dimethyl-3-[(9Z)-octadec-9-enoyloxy]propyl (9Z)-octadec-9-enoate","InChI=1S/C41H76O4/c1-5-7-9-11-13-15-17-19-21-23-25-27-29-31-33-35-39(42)44-37-41(3,4)38-45-40(43)36-34-32-30-28-26-24-22-20-18-16-14-12-10-8-6-2/h19-22H,5-18,23-38H2,1-4H3/b21-19-,22-20-",AMZKGJLFYCZDMJ-WRBBJXAJSA-N,CCCCCCCC\C=C/CCCCCCCC(=O)OCC(C)(C)COC(=O)CCCCCCC\C=C/CCCCCCCC,-7.102471439,0,1,G1,633.055,13.174,194.603,45,4,0,4,34,264,0,0,0,0,52.6,280.5078642,3.577399981,650.3006286
A-2696,"2,2-dimethylpropane-1,3-diyl dioctanoate","InChI=1S/C21H40O4/c1-5-7-9-11-13-15-19(22)24-17-21(3,4)18-25-20(23)16-14-12-10-8-6-2/h5-18H2,1-4H3",WFXHUBZUIFLWCV-UHFFFAOYSA-N,CCCCCCCC(=O)OCC(C)(C)COC(=O)CCCCCCC,-6.853146782,0.831378916,2,G2,356.547,5.82,102.451,25,4,0,4,16,148,0,0,0,0,52.6,154.588228,3.740300635,317.8052121
A-2698,"2-Butenedioic acid (E)-, di-C16-18-alkyl esters","InChI=1S/C38H72O4/c1-3-5-7-9-11-13-15-17-19-21-23-25-27-29-31-35-41-37(39)33-34-38(40)42-36-32-30-28-26-24-22-20-18-16-14-12-10-8-6-4-2/h33-34H,3-32,35-36H2,1-2H3/b34-33+",ZUWLIWZVBOETHU-JEIPZWNWSA-N,CCCCCCCCCCCCCCCCCOC(=O)/C=C/C(=O)OCCCCCCCCCCCCCCCCC,-7.074077365,0,1,G1,592.99,12.3718,180.916,42,4,0,4,34,248,0,0,0,0,52.6,262.1026409,3.333612509,535.6434711
A-2699,2-bromo-N-[4-chloro-2-(2-chlorobenzoyl)phenyl]acetamide,"InChI=1S/C15H10BrCl2NO2/c16-8-14(20)19-13-6-5-9(17)7-11(13)15(21)10-3-1-2-4-12(10)18/h1-7H,8H2,(H,19,20)",JQMAWYRGSOSWNJ-UHFFFAOYSA-N,Clc1ccc(NC(=O)CBr)c(c1)C(=O)c2ccccc2Cl,-6.888808288,0,1,G1,387.06,4.5578,88.7602,21,2,1,6,4,108,2,0,0,2,46.17,139.9303101,2.468304659,703.8230149
A-2701,"2-ethyl-2-[[(1-oxoisooctadecyl)oxy]methyl]-1,3-propanediyl bis(isooctadecanoate)","InChI=1S/C60H116O6/c1-8-60(51-64-57(61)48-42-36-30-24-18-12-9-15-21-27-33-39-45-54(2)3,52-65-58(62)49-43-37-31-25-19-13-10-16-22-28-34-40-46-55(4)5)53-66-59(63)50-44-38-32-26-20-14-11-17-23-29-35-41-47-56(6)7/h54-56H,8-53H2,1-7H3",RKJGFHYCZPZJPE-UHFFFAOYSA-N,CCC(COC(=O)CCCCCCCCCCCCCCC(C)C)(COC(=O)CCCCCCCCCCCCCCC(C)C)COC(=O)CCCCCCCCCCCCCCC(C)C,-7.271182465,0,1,G1,933.582,19.3646,284.029,66,6,0,6,52,392,0,0,0,0,78.9,412.0960378,4.546947852,925.2633673
A-2702,2-ethylhexyl octadecanoate,"InChI=1S/C26H52O2/c1-3-5-7-9-11-12-13-14-15-16-17-18-19-20-22-24-26(27)28-25-23-21-10-8-6-4-2/h3-25H2,1-2H3",IIGMITQLXAGZTL-UHFFFAOYSA-N,CCCCCCCCCCCCCCCCCC(=O)OCCCCCCCC,-6.899492196,0,1,G1,396.7,9.1516,123.881,28,2,0,2,23,168,0,0,0,0,26.3,177.1378712,3.111805563,300.8079409
A-2703,2-tetradecyloxirane,"InChI=1S/C16H32O/c1-2-3-4-5-6-7-8-9-10-11-12-13-14-16-15-17-16/h16H,2-15H2,1H3",DSZTYVZOIUIIGA-UHFFFAOYSA-N,CCCCCCCCCCCCCCC1CO1,-6.682020458,1.650514998,2,G2,240.431,5.4764,75.435,17,1,0,1,13,102,0,1,1,1,12.53,108.3210968,1.607549226,151.6041684
A-2704,"3-(3,5-di-tert-butyl-4-hydroxyphenyl)-N'-[3-(3,5-di-tert-butyl-4-hydroxyphenyl)propanoyl]propanehydrazide","InChI=1S/C34H52N2O4/c1-31(2,3)23-17-21(18-24(29(23)39)32(4,5)6)13-15-27(37)35-36-28(38)16-14-22-19-25(33(7,8)9)30(40)26(20-22)34(10,11)12/h17-20,39-40H,13-16H2,1-12H3,(H,35,37)(H,36,38)",HCILJBJJZALOAL-UHFFFAOYSA-N,CC(C)(C)c1cc(CCC(=O)NNC(=O)CCc2cc(c(O)c(c2)C(C)(C)C)C(C)(C)C)cc(c1O)C(C)(C)C,-7.04359803,0.650514998,2,G2,552.8,7.0006,163.941,40,4,4,6,6,222,2,0,0,2,98.66,241.4985959,2.039882443,1065.034292
A-2705,"3-(heptanoyloxy)-2,2-bis[(heptanoyloxy)methyl]propyl heptanoate","InChI=1S/C33H60O8/c1-5-9-13-17-21-29(34)38-25-33(26-39-30(35)22-18-14-10-6-2,27-40-31(36)23-19-15-11-7-3)28-41-32(37)24-20-16-12-8-4/h5-28H2,1-4H3",NCGQPNAQUYGWMI-UHFFFAOYSA-N,CCCCCCC(=O)OCC(COC(=O)CCCCCC)(COC(=O)CCCCCC)COC(=O)CCCCCC,-7.068063351,0,1,G1,584.835,8.0272,161.305,41,8,0,8,28,240,0,0,0,0,105.2,249.517668,5.465300093,573.2106467