ID,Name,InChI,InChIKey,SMILES,Solubility,SD,Ocurrences,Group,MolWt,MolLogP,MolMR,HeavyAtomCount,NumHAcceptors,NumHDonors,NumHeteroatoms,NumRotatableBonds,NumValenceElectrons,NumAromaticRings,NumSaturatedRings,NumAliphaticRings,RingCount,TPSA,LabuteASA,BalabanJ,BertzCT
A-2762,"trans-4-ethyl-4'-(4-propylcyclohexyl)-1,1'-biphenyl","InChI=1S/C23H30/c1-3-5-19-8-12-21(13-9-19)23-16-14-22(15-17-23)20-10-6-18(4-2)7-11-20/h6-7,10-11,14-17,19,21H,3-5,8-9,12-13H2,1-2H3",DOALOUQODWWGEZ-UHFFFAOYSA-N,CCCC1CCC(CC1)c2ccc(cc2)c3ccc(CC)cc3,-7.185390564,0,1,G1,306.493,6.9899,100.863,23,0,0,0,5,122,2,1,1,3,0,141.4970294,1.648467523,582.9403665
A-2763,trixylyl phosphate,"InChI=1S/C24H27O4P/c1-16-7-17(2)11-22(10-16)26-29(25,27-23-12-18(3)8-19(4)13-23)28-24-14-20(5)9-21(6)15-24/h7-15H,1-6H3",LLPMAOBOEQFPRE-UHFFFAOYSA-N,Cc1cc(C)cc(O[P](=O)(Oc2cc(C)cc(C)c2)Oc3cc(C)cc(C)c3)c1,-7.312230264,0,1,G1,410.45,7.18202,117.2385,29,4,0,5,6,152,3,0,0,3,44.76,172.6254906,1.995629228,890.7809092
A-2764,"beta,beta-carotene","InChI=1S/C40H56/c1-31(19-13-21-33(3)25-27-37-35(5)23-15-29-39(37,7)8)17-11-12-18-32(2)20-14-22-34(4)26-28-38-36(6)24-16-30-40(38,9)10/h11-14,17-22,25-28H,15-16,23-24,29-30H2,1-10H3/b12-11+,19-13+,20-14+,27-25+,28-26+,31-17+,32-18+,33-21+,34-22+",OENHQHLEOONYIE-JLTXGRSLSA-N,CC1=C(\C=C\C(C)=C\C=C\C(C)=C\C=C\C=C(C)\C=C\C=C(C)\C=C\C2=C(C)CCCC2(C)C)C(C)(C)CCC1,-7.553792438,0,1,G1,536.888,12.6058,181.392,40,0,0,0,10,216,0,0,2,2,0,247.3746978,1.885637979,1116.383091
A-2765,hafnium,InChI=1S/Hf,VBJZVLUMGGDVMO-UHFFFAOYSA-N,[Hf],-7.172432644,0,1,G1,178.49,-0.0025,0,1,0,0,1,0,4,0,0,0,0,0,26.27658255,0,0
A-2766,hafnium dioxide,InChI=1S/Hf.2O/q+4;2*-2,WIHZLLGSGQNAGK-UHFFFAOYSA-N,[O--].[O--].[Hf+4],-7.244046096,0,1,G1,210.488,-0.2401,1.373,3,0,0,3,0,16,0,0,0,0,57,37.2380894,0,2.754887502
A-2767,(13Z)-N-octadecyldocos-13-enamide,"InChI=1S/C40H79NO/c1-3-5-7-9-11-13-15-17-19-21-22-23-24-26-28-30-32-34-36-38-40(42)41-39-37-35-33-31-29-27-25-20-18-16-14-12-10-8-6-4-2/h17,19H,3-16,18,20-39H2,1-2H3,(H,41,42)/b19-17-",FUSNPOOETKRESL-ZPHPHTNESA-N,CCCCCCCCCCCCCCCCCCNC(=O)CCCCCCCCCCC\C=C/CCCCCCCC,-7.770909423,0.349485002,2,G3,590.078,13.962,190.4757,42,1,1,2,36,250,0,0,0,0,29.1,265.9937747,3.175150945,527.73156
A-2768,"(2R)-5-amino-2-(dibenzylamino)-1,6-diphenylhex-4-en-3-one","InChI=1S/C32H32N2O/c33-30(21-26-13-5-1-6-14-26)23-32(35)31(22-27-15-7-2-8-16-27)34(24-28-17-9-3-10-18-28)25-29-19-11-4-12-20-29/h1-20,23,31H,21-22,24-25,33H2/t31-/m1/s1",IVYLNCUETJNNJU-WJOKGBTCSA-N,NC(Cc1ccccc1)=CC(=O)[C@@H](Cc2ccccc2)N(Cc3ccccc3)Cc4ccccc4,-7.663343734,0,1,G1,460.621,5.9545,143.4884,35,3,1,3,11,176,4,0,0,4,46.33,208.0938661,1.64572674,1164.177354
A-2769,(Z)-N-octadec-9-enylhexadecan-1-amide,"InChI=1S/C34H67NO/c1-3-5-7-9-11-13-15-17-18-19-21-23-25-27-29-31-33-35-34(36)32-30-28-26-24-22-20-16-14-12-10-8-6-4-2/h17-18H,3-16,19-33H2,1-2H3,(H,35,36)/b18-17-",VMRGZRVLZQSNHC-ZCXUNETKSA-N,CCCCCCCCCCCCCCCC(=O)NCCCCCCCC\C=C/CCCCCCCC,-7.704078415,0,1,G1,505.916,11.6214,162.7737,36,1,1,2,30,214,0,0,0,0,29.1,227.8041221,3.184849166,444.4628278
A-2771,"1H-Pyrazole-3-carboxylic acid, 4,5-dihydro-5-oxo-1-(4-sulfophenyl)-4-[(4-sulfophenyl)azo]-, reaction products with guanidine hydrochloride N,N'-bis(mixed Ph, tolyl and xylyl) derivs.","InChI=1S/C16H12N4O9S2.CH5N3.ClH/c21-15-13(18-17-9-1-5-11(6-2-9)30(24,25)26)14(16(22)23)19-20(15)10-3-7-12(8-4-10)31(27,28)29;2-1(3)4;/h1-8,13H,(H,22,23)(H,24,25,26)(H,27,28,29);(H5,2,3,4);1H",BHAUFROZPICYNL-UHFFFAOYSA-N,[H+].[Cl-].NC(N)=N.OC(=O)C1=NN(c2ccc(cc2)[S](O)(=O)=O)C(=O)C1N=Nc3ccc(cc3)[S](O)(=O)=O,-7.751246762,0,1,G1,563.958,-2.92523,120.5875,36,10,6,19,6,194,2,0,1,3,279.32,210.7628519,2.01E-06,1428.468706
A-2772,"3-(3,5-di-tert-butyl-4-hydroxyphenyl)-N-octadecylpropanamide","InChI=1S/C35H63NO2/c1-8-9-10-11-12-13-14-15-16-17-18-19-20-21-22-23-26-36-32(37)25-24-29-27-30(34(2,3)4)33(38)31(28-29)35(5,6)7/h27-28,38H,8-26H2,1-7H3,(H,36,37)",HQSOHEURLMFXBX-UHFFFAOYSA-N,CCCCCCCCCCCCCCCCCCNC(=O)CCc1cc(c(O)c(c1)C(C)(C)C)C(C)(C)C,-7.724189002,0,1,G1,529.894,10.2975,166.3835,38,2,2,3,20,220,1,0,0,1,49.33,236.5203425,2.131331312,734.1149338
A-2773,"3-(3,5-di-tert-butyl-4-hydroxyphenyl)-N-{6-[3-(3,5-di-tert-butyl-4-hydroxyphenyl)propanamido]hexyl}propanamide","InChI=1S/C40H64N2O4/c1-37(2,3)29-23-27(24-30(35(29)45)38(4,5)6)17-19-33(43)41-21-15-13-14-16-22-42-34(44)20-18-28-25-31(39(7,8)9)36(46)32(26-28)40(10,11)12/h23-26,45-46H,13-22H2,1-12H3,(H,41,43)(H,42,44)",OKOBUGCCXMIKDM-UHFFFAOYSA-N,CC(C)(C)c1cc(CCC(=O)NCCCCCCNC(=O)CCc2cc(c(O)c(c2)C(C)(C)C)C(C)(C)C)cc(c1O)C(C)(C)C,-7.804113524,1,2,G2,636.962,8.646,192.143,46,4,4,6,13,258,2,0,0,2,98.66,279.7181126,1.712507143,1157.46002
A-2775,4-chloro-2-(2-chlorobenzoyl)aniline,"InChI=1S/C13H9Cl2NO/c14-8-5-6-12(16)10(7-8)13(17)9-3-1-2-4-11(9)15/h1-7H,16H2",KWZYIAJRFJVQDO-UHFFFAOYSA-N,Nc1ccc(Cl)cc1C(=O)c2ccccc2Cl,-7.425088938,0,1,G1,266.127,3.8066,70.7489,17,2,1,4,2,86,2,0,0,2,43.09,108.9613847,2.513132051,581.3821875
A-2776,4-{4-[(diphenoxyphosphoryl)oxy]phenyl}phenyl diphenyl phosphate,"InChI=1S/C36H28O8P2/c37-45(39-31-13-5-1-6-14-31,40-32-15-7-2-8-16-32)43-35-25-21-29(22-26-35)30-23-27-36(28-24-30)44-46(38,41-33-17-9-3-10-18-33)42-34-19-11-4-12-20-34/h1-28H",GXLTXCWSKKOKIR-UHFFFAOYSA-N,O=[P](Oc1ccccc1)(Oc2ccccc2)Oc3ccc(cc3)c4ccc(O[P](=O)(Oc5ccccc5)Oc6ccccc6)cc4,-7.813287357,0,1,G1,650.56,10.6434,176.627,46,8,0,10,13,230,6,0,0,6,89.52,266.4973669,1.168818628,1686.820053
A-2777,Pigment red 178,InChI=1S/C48H26N6O4/c55-45-37-23-19-33-35-21-25-39-44-40(48(58)54(47(39)57)32-17-13-30(14-18-32)52-50-28-9-5-2-6-10-28)26-22-36(42(35)44)34-20-24-38(43(37)41(33)34)46(56)53(45)31-15-11-29(12-16-31)51-49-27-7-3-1-4-8-27/h1-26H,PXUJYZVHENREBB-UHFFFAOYSA-N,O=C1N(c2ccc(cc2)N=Nc3ccccc3)C(=O)c4ccc5c6ccc7C(=O)N(c8ccc(cc8)N=Nc9ccccc9)C(=O)c%10ccc(c%11ccc1c4c5%11)c6c7%10,-7.875509224,0,1,G1,750.774,10.7722,230.006,58,10,0,10,6,272,11,0,0,11,127.58,326.1066999,1.05129958,3340.505104
A-2778,"N-(10-benzamido-6,13-diacetamido-2,9-diethoxy-5,12-dioxa-7,14-diazapentacen-3-yl)benzamide","InChI=1S/C40H34N6O8/c1-5-51-29-17-27-31(19-25(29)45-39(49)23-13-9-7-10-14-23)53-37-34(42-22(4)48)36-38(33(35(37)43-27)41-21(3)47)54-32-20-26(30(52-6-2)18-28(32)44-36)46-40(50)24-15-11-8-12-16-24/h7-20H,5-6H2,1-4H3,(H,41,47)(H,42,48)(H,45,49)(H,46,50)",RVIBUAHWQKVQEF-UHFFFAOYSA-N,CCOc1cc2N=C3C(=C4Oc5cc(NC(=O)c6ccccc6)c(OCC)cc5N=C4C(=C3Oc2cc1NC(=O)c7ccccc7)NC(C)=O)NC(C)=O,-7.86138265,0,1,G1,726.746,7.0194,200.8418,54,10,4,14,10,272,5,0,2,7,178.04,308.3879018,1.391009374,2298.431512
A-2779,N-octadecyloctadecanamide,"InChI=1S/C36H73NO/c1-3-5-7-9-11-13-15-17-19-21-23-25-27-29-31-33-35-37-36(38)34-32-30-28-26-24-22-20-18-16-14-12-10-8-6-4-2/h3-35H2,1-2H3,(H,37,38)",DJWFNQUDPJTSAD-UHFFFAOYSA-N,CCCCCCCCCCCCCCCCCCNC(=O)CCCCCCCCCCCCCCCCC,-7.729153446,0.352075258,2,G3,535.986,12.6256,172.1017,38,1,1,2,33,228,0,0,0,0,29.1,241.2236093,3.137204662,435.058193
A-2781,aluminium(3+) ion borate,InChI=1S/Al.BO3/c;2-1(3)4/q+3;-3,OJMOMXZKOWKUTA-UHFFFAOYSA-N,[Al+3].[O-]B([O-])[O-],-6.93344173,0,1,G1,85.791,-4.3286,11.508,5,3,0,5,0,24,0,0,0,0,69.18,40.55803027,0,11.60964047
A-2783,nitriloborane,InChI=1S/BN/c1-2,PZNSFCLAULLKQX-UHFFFAOYSA-N,B#N,-6.394784279,0,1,G1,24.819,-0.36572,7.479,2,1,0,2,0,8,0,0,0,0,23.79,13.91062206,3,6.754887502
A-2785,"4-({3,5-bis[(2,6-di-tert-butyl-4-hydroxyphenyl)methyl]-2,4,6-trimethylphenyl}methyl)-3,5-di-tert-butylphenol","InChI=1S/C54H78O3/c1-31-37(22-34-25-40(49(4,5)6)46(55)41(26-34)50(7,8)9)32(2)39(24-36-29-44(53(16,17)18)48(57)45(30-36)54(19,20)21)33(3)38(31)23-35-27-42(51(10,11)12)47(56)43(28-35)52(13,14)15/h25-30,55-57H,22-24H2,1-21H3",VSAWBBYYMBQKIK-UHFFFAOYSA-N,Cc1c(Cc2cc(c(O)c(c2)C(C)(C)C)C(C)(C)C)c(C)c(Cc3cc(c(O)c(c3)C(C)(C)C)C(C)(C)C)c(C)c1Cc4cc(c(O)c(c4)C(C)(C)C)C(C)(C)C,-7.981473646,1.046025739,2,G2,775.215,14.28606,245.5914,57,3,3,3,6,312,4,0,0,4,60.69,347.9336504,2.100861725,1777.660023
A-2788,4-(2-phenylpropan-2-yl)-N-[4-(2-phenylpropan-2-yl)phenyl]aniline,"InChI=1S/C30H31N/c1-29(2,23-11-7-5-8-12-23)25-15-19-27(20-16-25)31-28-21-17-26(18-22-28)30(3,4)24-13-9-6-10-14-24/h5-22,31H,1-4H3",UJAWGGOCYUPCPS-UHFFFAOYSA-N,CC(C)(c1ccccc1)c2ccc(Nc3ccc(cc3)C(C)(C)c4ccccc4)cc2,-7.782007082,0,1,G1,405.585,8.082,133.3067,31,1,1,1,6,156,4,0,0,4,12.03,186.3422006,1.488675662,1013.666134
A-2789,"2-[7-(diethylamino)-2-oxo-2H-chromen-3-yl]-1,3-benzoxazole-5-sulfonamide","InChI=1S/C20H19N3O5S/c1-3-23(4-2)13-6-5-12-9-15(20(24)28-18(12)10-13)19-22-16-11-14(29(21,25)26)7-8-17(16)27-19/h5-11H,3-4H2,1-2H3,(H2,21,25,26)",SDUIURJVOCHJCO-UHFFFAOYSA-N,CCN(CC)c1ccc2C=C(C(=O)Oc2c1)c3oc4ccc(cc4n3)[S](N)(=O)=O,-7.831098413,0,1,G1,413.455,3.0948,110.4212,29,7,1,9,5,150,4,0,0,4,119.64,166.1524113,1.820500232,1384.528905
A-2790,Indanthrene,"InChI=1S/C28H14N2O4/c31-25-13-5-1-3-7-15(13)27(33)21-17(25)9-11-19-23(21)29-20-12-10-18-22(24(20)30-19)28(34)16-8-4-2-6-14(16)26(18)32/h1-12,29-30H",UHOKSCJSTAHBSO-UHFFFAOYSA-N,O=C1c2ccccc2C(=O)c3c4Nc5ccc6C(=O)c7ccccc7C(=O)c6c5Nc4ccc13,-7.946874563,0,1,G1,442.43,4.1406,136.4454,34,4,2,6,0,160,7,0,0,7,99.86,188.6067747,1.723167291,2099.971196
A-2792,3-{3-[(2-ethylhexyl)oxy]propyl}-1-{5-[({3-[(2-ethylhexyl)oxy]propyl}carbamoyl)amino]naphthalen-1-yl}urea,"InChI=1S/C34H56N4O4/c1-5-9-15-27(7-3)25-41-23-13-21-35-33(39)37-31-19-11-18-30-29(31)17-12-20-32(30)38-34(40)36-22-14-24-42-26-28(8-4)16-10-6-2/h11-12,17-20,27-28H,5-10,13-16,21-26H2,1-4H3,(H2,35,37,39)(H2,36,38,40)",NZJJSYLOGZGJHU-UHFFFAOYSA-N,CCCCC(CC)COCCCNC(=O)Nc1cccc2c(NC(=O)NCCCOCC(CC)CCCC)cccc12,-8.06807152,0,1,G1,584.846,8.329,175.4748,42,4,4,8,22,236,2,0,0,2,100.72,253.6212618,1.739681915,950.5190337
A-2794,"2-[9-(1-{[3-(3-tert-butyl-4-hydroxy-5-methylphenyl)propanoyl]oxy}-2-methylpropan-2-yl)-2,4,8,10-tetraoxaspiro[5.5]undecan-3-yl]-2-methylpropyl 3-(3-tert-butyl-4-hydroxy-5-methylphenyl)propanoate","InChI=1S/C43H64O10/c1-27-17-29(19-31(35(27)46)39(3,4)5)13-15-33(44)48-21-41(9,10)37-50-23-43(24-51-37)25-52-38(53-26-43)42(11,12)22-49-34(45)16-14-30-18-28(2)36(47)32(20-30)40(6,7)8/h17-20,37-38,46-47H,13-16,21-26H2,1-12H3",CGRTZESQZZGAAU-UHFFFAOYSA-N,Cc1cc(CCC(=O)OCC(C)(C)[CH]2OC[C]3(CO2)CO[CH](OC3)C(C)(C)COC(=O)CCc4cc(C)c(O)c(c4)C(C)(C)C)cc(c1O)C(C)(C)C,-8.267743564,0,1,G1,740.975,7.74604,203.0266,53,10,2,10,12,296,2,2,2,4,129.98,316.3828236,1.186887484,1471.049554
A-2795,"titanium(4+) ion bis(2,6-difluoro-3-(1H-pyrrol-1-yl)benzen-1-ide) bis(cyclopenta-2,4-dien-1-ide)","InChI=1S/2C10H6F2N.2C5H5.Ti/c2*11-8-3-4-10(9(12)7-8)13-5-1-2-6-13;2*1-2-4-5-3-1;/h2*1,3-7H;2*1-5H;/q4*-1;+4",UWVBGISRTRNOCI-UHFFFAOYSA-N,[Ti+4].Fc1ccc(N2C=C[C-]=C2)c(F)c1.Fc3ccc(N4C=C[C-]=C4)c(F)c3.[cH-]5cccc5.[cH-]6cccc6,-8.125789392,0,1,G1,534.379,7.91988,133.112,37,2,0,7,2,184,6,0,0,6,9.86,228.2199315,1.87E-07,1217.354895
A-2796,"3-(1,3-benzothiazol-2-yl)-7-(diethylamino)-2-oxo-2H-chromene-4-carbonitrile","InChI=1S/C21H17N3O2S/c1-3-24(4-2)13-9-10-14-15(12-22)19(21(25)26-17(14)11-13)20-23-16-7-5-6-8-18(16)27-20/h5-11H,3-4H2,1-2H3",NDKYYKABKLOOAP-UHFFFAOYSA-N,CCN(CC)c1ccc2c(OC(=O)C(=C2C#N)c3sc4ccccc4n3)c1,-8.097434324,0,1,G1,375.453,4.78758,109.374,27,6,0,6,4,134,4,0,0,4,70.13,159.6553005,1.966088022,1212.98041
A-2797,4-(2-{4-[2-(3-cyanophenyl)ethenyl]phenyl}ethenyl)benzonitrile,InChI=1S/C24H16N2/c25-17-23-14-11-21(12-15-23)9-6-19-4-7-20(8-5-19)10-13-22-2-1-3-24(16-22)18-26/h1-16H,XSPWINZRSAKTKX-UHFFFAOYSA-N,N#Cc1ccc(C=Cc2ccc(cc2)C=Cc3cccc(c3)C#N)cc1,-8.123728846,0,1,G1,332.406,5.77076,106.612,26,2,0,2,4,122,3,0,0,3,47.58,153.1411975,1.675444738,1025.309021
A-2798,2-[(E)-2-(2-methoxy-4-{3-methoxy-4-[(E)-2-[2-oxo-1-(phenylcarbamoyl)propyl]diazen-1-yl]phenyl}phenyl)diazen-1-yl]-3-oxo-N-phenylbutanamide,"InChI=1S/C34H32N6O6/c1-21(41)31(33(43)35-25-11-7-5-8-12-25)39-37-27-17-15-23(19-29(27)45-3)24-16-18-28(30(20-24)46-4)38-40-32(22(2)42)34(44)36-26-13-9-6-10-14-26/h5-20,31-32H,1-4H3,(H,35,43)(H,36,44)",DMPXHEMGDYKSFL-UHFFFAOYSA-N,COc1cc(ccc1N=NC(C(C)=O)C(=O)Nc2ccccc2)c3ccc(N=NC(C(C)=O)C(=O)Nc4ccccc4)c(OC)c3,-8.616766696,0,1,G1,620.666,6.7308,173.0954,46,10,2,12,13,234,4,0,0,4,160.24,265.1185658,1.527448689,1644.867677
A-2801,tris(2-ethylhexyl) phosphate,"InChI=1S/C24H51O4P/c1-7-13-16-22(10-4)19-26-29(25,27-20-23(11-5)17-14-8-2)28-21-24(12-6)18-15-9-3/h22-24H,7-21H2,1-6H3",GTVWRXDRKAHEAD-UHFFFAOYSA-N,CCCCC(CC)CO[P](=O)(OCC(CC)CCCC)OCC(CC)CCCC,-8.85998044,1.542743112,5,G4,434.642,8.7935,125.3805,29,4,0,5,21,176,0,0,0,0,44.76,182.023166,4.909010056,345.2832479
A-2802,"2-(diphenyl-1,3,5-triazin-2-yl)-5-(hexyloxy)phenol","InChI=1S/C27H27N3O2/c1-2-3-4-11-18-32-22-16-17-23(24(31)19-22)27-29-25(20-12-7-5-8-13-20)28-26(30-27)21-14-9-6-10-15-21/h5-10,12-17,19,31H,2-4,11,18H2,1H3",LEVFXWNQQSSNAC-UHFFFAOYSA-N,CCCCCCOc1ccc(c(O)c1)c2nc(nc(n2)c3ccccc3)c4ccccc4,-9.15181097,0,1,G1,425.532,6.5373,127.4368,32,5,1,5,9,162,4,0,0,4,68.13,188.3590613,1.664155868,1090.416976
A-2803,"(1E,19E)-10,11-dioctylicosa-1,19-diene-1,20-diamine","InChI=1S/C72H139N/c1-3-5-7-9-11-13-15-17-19-21-23-25-27-29-31-33-35-37-39-41-43-45-47-49-51-53-55-57-59-61-63-65-67-69-71-73-72-70-68-66-64-62-60-58-56-54-52-50-48-46-44-42-40-38-36-34-32-30-28-26-24-22-20-18-16-14-12-10-8-6-4-2/h23,25,29,31,42,44,48,50,73H,3-22,24,26-28,30,32-41,43,45-47,49,51-72H2,1-2H3/b25-23+,31-29+,44-42+,50-48+",PNJSUECMZCQDCC-ONBHPNORSA-N,CCCCCCCCCCCCCCCCCCCC\C=C\C\C=C\CCCCCCCCCCCNCCCCCCCCCCCCCCCCCCCC\C=C\C\C=C\CCCCCCCCCCC,-9.707106255,0,1,G1,1018.911,26.2466,337.7977,73,1,1,1,66,432,0,0,0,0,12.03,463.4415912,3.163328504,1049.879138
A-2804,"1,2-bis(2-propylheptyl) benzene-1,2-dicarboxylate","InChI=1S/C28H46O4/c1-5-9-11-17-23(15-7-3)21-31-27(29)25-19-13-14-20-26(25)28(30)32-22-24(16-8-4)18-12-10-6-2/h13-14,19-20,23-24H,5-12,15-18,21-22H2,1-4H3",MTYUOIVEVPTXFX-UHFFFAOYSA-N,CCCCCC(CCC)COC(=O)c1ccccc1C(=O)OCC(CCC)CCCCC,-9.649988729,0,1,G1,446.672,7.9934,132.087,32,4,0,4,18,182,1,0,0,1,52.6,196.0102643,2.695659241,585.0744729
A-2805,"2,2-dichloro-1-(3-methyl-2,3-dihydro-1,4-benzoxazin-4-yl)ethanone","InChI=1S/C11H11Cl2NO2/c1-7-6-16-9-5-3-2-4-8(9)14(7)11(15)10(12)13/h2-5,7,10H,6H2,1H3",PFJJMJDEVDLPNE-UHFFFAOYSA-N,CC1COc2ccccc2N1C(=O)C(Cl)Cl,-3.835390149,0.139354926,2,G3,260.12,2.6042,64.379,16,2,0,5,1,86,1,0,1,2,29.54,103.891716,2.404984323,408.7259655
A-2806,(4-fluorophenyl)(piperidin-4-yl)methanone hydrochloride,"InChI=1S/C12H14FNO.ClH/c13-11-3-1-9(2-4-11)12(15)10-5-7-14-8-6-10;/h1-4,10,14H,5-8H2;1H",GPKDBZQZPNOBGM-UHFFFAOYSA-N,[H+].[Cl-].Fc1ccc(cc1)C(=O)C2CCNCC2,0.589019569,0,1,G1,243.709,-0.8755,57.4362,16,2,1,4,2,88,1,1,1,2,29.1,102.130036,1.28E-06,352.0281907
A-2807,"1,3-dihydroxypropan-2-one","InChI=1S/C3H6O3/c4-1-3(6)2-5/h4-5H,1-2H2",RXKJFZQQPQGTFL-UHFFFAOYSA-N,OCC(=O)CO,1.013864214,0,1,G1,90.078,-1.4599,19.1786,6,3,2,3,2,36,0,0,0,0,57.53,35.21912486,2.988160882,44
A-2809,"disodium 4-[(E)-2-{2,4-dihydroxy-5-[(E)-2-(2-hydroxy-3,5-dinitrophenyl)diazen-1-yl]-3-[(E)-2-(4-nitrophenyl)diazen-1-yl]phenyl}diazen-1-yl]-5-hydroxynaphthalene-2,7-disulfonate","InChI=1S/C28H17N9O16S2.2Na/c38-23-10-17(55(51,52)53)6-12-5-16(54(48,49)50)9-18(24(12)23)30-32-20-11-21(33-31-19-7-15(36(44)45)8-22(26(19)39)37(46)47)28(41)25(27(20)40)34-29-13-1-3-14(4-2-13)35(42)43;;/h1-11,38-41H,(H,48,49,50)(H,51,52,53);;/q;2*+1/p-2",SKCQDFLBBMGDPT-UHFFFAOYSA-L,[Na+].[Na+].Oc1cc(cc2cc(cc(N=Nc3cc(N=Nc4cc(cc(c4O)[N+]([O-])=O)[N+]([O-])=O)c(O)c(N=Nc5ccc(cc5)[N+]([O-])=O)c3O)c12)[S]([O-])(=O)=O)[S]([O-])(=O)=O,-0.967567025,0,1,G1,843.589,0.4492,178.3508,57,22,4,29,11,282,5,0,0,5,398.9,359.8446172,4.35E-06,2799.992988
A-2811,"disodium 7,7'-(carbonyldiimino)bis[4-hydroxy-3-(phenylazo)naphthalene-2-sulphonate]","InChI=1S/C33H24N6O9S2.2Na/c40-31-25-13-11-23(15-19(25)17-27(49(43,44)45)29(31)38-36-21-7-3-1-4-8-21)34-33(42)35-24-12-14-26-20(16-24)18-28(50(46,47)48)30(32(26)41)39-37-22-9-5-2-6-10-22;;/h1-18,40-41H,(H2,34,35,42)(H,43,44,45)(H,46,47,48);;/q;2*+1/p-2",DSARWKALPGYFTA-UHFFFAOYSA-L,[Na+].[Na+].Oc1c2ccc(NC(=O)Nc3ccc4c(O)c(N=Nc5ccccc5)c(cc4c3)[S]([O-])(=O)=O)cc2cc(c1N=Nc6ccccc6)[S]([O-])(=O)=O,-1.887246692,0,1,G1,756.686,1.6952,181.0294,52,13,4,19,8,252,6,0,0,6,245.43,340.1582978,3.02E-06,2416.341801
A-2812,trimethyl(oxiran-2-ylmethyl)azanium chloride,"InChI=1S/C6H14NO.ClH/c1-7(2,3)4-6-5-8-6;/h6H,4-5H2,1-3H3;1H/q+1;/p-1",PUVAFTRIIUSGLK-UHFFFAOYSA-M,[Cl-].C[N+](C)(C)CC1CO1,0.749634411,0,1,G1,151.637,-2.9046,32.6394,9,1,0,3,2,56,0,1,1,1,12.53,62.79457409,6.40E-07,85.54887502
A-2814,4-(propan-2-yl)benzene-1-sulfonic acid,"InChI=1S/C9H12O3S/c1-7(2)8-3-5-9(6-4-8)13(10,11)12/h3-7H,1-2H3,(H,10,11,12)",CVLHGLWXLDOELD-UHFFFAOYSA-N,CC(C)c1ccc(cc1)[S](O)(=O)=O,0.612751114,0,1,G1,200.259,2.0567,50.3456,13,2,1,4,2,72,1,0,0,1,54.37,78.15486547,3.083559884,375.8257706
A-2816,disodium 2-[4-[[1-[[(2-methoxy-5-methyl-4-sulphonatophenyl)amino]carbonyl]-2-oxopropyl]azo]phenyl]-6-methylbenzothiazole-7-sulphonate,"InChI=1S/C26H24N4O9S3.2Na/c1-13-5-10-18-23(24(13)42(36,37)38)40-26(28-18)16-6-8-17(9-7-16)29-30-22(15(3)31)25(32)27-19-11-14(2)21(41(33,34)35)12-20(19)39-4;;/h5-12,22H,1-4H3,(H,27,32)(H,33,34,35)(H,36,37,38);;/q;2*+1/p-2",ADKFZTIPPMZAKW-UHFFFAOYSA-L,[Na+].[Na+].COc1cc(c(C)cc1NC(=O)C(N=Nc2ccc(cc2)c3sc4c(ccc(C)c4[S]([O-])(=O)=O)n3)C(C)=O)[S]([O-])(=O)=O,-0.916346136,0,1,G1,676.662,-1.91506,151.0651,44,13,1,18,9,220,4,0,0,4,207.41,301.1591628,3.37E-06,1979.869425
A-2818,disodium 5-[(E)-2-(2-hydroxynaphthalen-1-yl)diazen-1-yl]-2-{4-[(E)-2-(2-hydroxynaphthalen-1-yl)diazen-1-yl]-2-sulfonatophenyl}benzene-1-sulfonate,"InChI=1S/C32H22N4O8S2.2Na/c37-27-15-9-19-5-1-3-7-23(19)31(27)35-33-21-11-13-25(29(17-21)45(39,40)41)26-14-12-22(18-30(26)46(42,43)44)34-36-32-24-8-4-2-6-20(24)10-16-28(32)38;;/h1-18,33-34H,(H,39,40,41)(H,42,43,44);;/q;2*+1/p-2/b35-31-,36-32-;;",UJLOYSKARDZKTC-IQRNGZOLSA-L,[Na+].[Na+].[O-][S](=O)(=O)c1cc(N\N=C2/C(=O)C=Cc3ccccc23)ccc1c4ccc(N\N=C5/C(=O)C=Cc6ccccc56)cc4[S]([O-])(=O)=O,-1.897313906,0,1,G1,698.646,-2.006,169.0898,48,12,2,16,7,230,4,0,2,6,197.32,319.3691111,2.60E-06,2156.774091
A-2819,4-aminobenzonitrile,"InChI=1S/C7H6N2/c8-5-6-1-3-7(9)4-2-6/h1-4H,9H2",YBAZINRZQSAIAY-UHFFFAOYSA-N,Nc1ccc(cc1)C#N,-1.142974365,0.010466953,2,G3,118.139,1.14048,35.5694,9,2,1,2,0,44,1,0,0,1,49.81,53.52881561,3.056038396,230.088218
A-2821,potassium 2-sulfanylacetate,"InChI=1S/C2H4O2S.K/c3-2(4)1-5;/h5H,1H2,(H,3,4);/q;+1/p-1",HYTYHTSMCRDHIM-UHFFFAOYSA-M,[K+].[O-]C(=O)CS,0.780671021,0,1,G1,130.209,-4.3299,18.86,6,3,1,4,1,30,0,0,0,0,40.13,84.13758035,0,46.81274391
A-2822,sodium 2-hydroxy-3-(prop-2-en-1-yloxy)propane-1-sulfonate,"InChI=1S/C6H12O5S.Na/c1-2-3-11-4-6(7)5-12(8,9)10;/h2,6-7H,1,3-5H2,(H,8,9,10);/q;+1/p-1",CJGJYOBXQLCLRG-UHFFFAOYSA-M,[Na+].OC(COCC=C)C[S]([O-])(=O)=O,0.55383995,0,1,G1,218.206,-3.9009,41.587,13,5,1,7,6,72,0,0,0,0,86.66,99.82417318,0,225.1791103
A-2823,2-(carboxyoxy)ethyl hydrogen carbonate,InChI=1S/C3H4O3/c4-3-5-1-2-6-3/h1-2H2,KMTRUDSVKNLOMY-UHFFFAOYSA-N,O=C1OCCO1,0.946191052,0.054504474,2,G3,88.062,0.1532,17.3,6,3,0,3,0,34,0,1,1,1,35.53,34.85191666,2.367351851,60.4385619
A-2824,2-methylidenebutanedioic acid,"InChI=1S/C5H6O4/c1-3(5(8)9)2-4(6)7/h1-2H2,(H,6,7)(H,8,9)",LVHBHZANLOWSRM-UHFFFAOYSA-N,OC(=O)CC(=C)C(O)=O,-0.225028298,0.017514149,2,G3,130.099,0.1019,29.0286,9,2,2,4,3,50,0,0,0,0,74.6,51.42092816,3.788427601,158.34093
A-2826,(2S)-2-amino-5-carbamimidamidopentanoic acid hydrochloride,"InChI=1S/C6H14N4O2.ClH/c7-4(5(11)12)2-1-3-10-6(8)9;/h4H,1-3,7H2,(H,11,12)(H4,8,9,10);1H/t4-;/m0./s1",KWTQSFXGGICVPE-WCCKRBBISA-N,[Cl-].N[C@@H](CCCN=C(N)N)C(O)=O.[H+],0.539730472,0,1,G1,210.665,-4.4316,46.634,13,3,4,7,5,78,0,0,0,0,127.72,84.07260365,-6.05E-07,186.6703177
A-2828,sodium 3-[[4-(benzoylethylamino)-2-methylphenyl]azo]-4-hydroxynaphthalene-1-sulphonate,"InChI=1S/C26H23N3O5S.Na/c1-16-14-19(27-17(2)25(30)18-8-4-3-5-9-18)12-13-22(16)28-29-23-15-24(35(32,33)34)20-10-6-7-11-21(20)26(23)31;/h3-15,17,27-28H,1-2H3,(H,32,33,34);/q;+1/p-1/b29-23+;",RIHHHARTNPZGHI-BTCGTBLPSA-M,[Na+].CC(Nc1ccc(N\N=C\2C=C(c3ccccc3C2=O)[S]([O-])(=O)=O)c(C)c1)C(=O)c4ccccc4,-1.812900622,0,1,G1,511.535,1.23282,134.5406,36,8,2,10,7,178,3,0,1,4,127.76,231.099957,3.61E-06,1484.424235