ID,Name,InChI,InChIKey,SMILES,Solubility,SD,Ocurrences,Group,MolWt,MolLogP,MolMR,HeavyAtomCount,NumHAcceptors,NumHDonors,NumHeteroatoms,NumRotatableBonds,NumValenceElectrons,NumAromaticRings,NumSaturatedRings,NumAliphaticRings,RingCount,TPSA,LabuteASA,BalabanJ,BertzCT
A-2961,"trisodium 5-oxo-1-(4-sulfonatophenyl)-4-[(E)-2-(4-sulfonatophenyl)diazen-1-yl]-4,5-dihydro-1H-pyrazole-3-carboxylate","InChI=1S/C16H12N4O9S2.3Na/c21-15-13(18-17-9-1-5-11(6-2-9)30(24,25)26)14(16(22)23)19-20(15)10-3-7-12(8-4-10)31(27,28)29;;;/h1-8,13H,(H,22,23)(H,24,25,26)(H,27,28,29);;;/q;3*+1/p-3",UJMBCXLDXJUMFB-UHFFFAOYSA-K,[Na+].[Na+].[Na+].[O-]C(=O)C1=NN(c2ccc(cc2)[S]([O-])(=O)=O)C(=O)C1N=Nc3ccc(cc3)[S]([O-])(=O)=O,-0.504996401,0,1,G1,534.371,-9.8882,97.0424,34,12,0,18,6,162,2,0,1,3,211.92,259.6292535,3.63E-06,1330.787726
A-2962,(2S)-2-aminopropanoic acid,"InChI=1S/C3H7NO2/c1-2(4)3(5)6/h2H,4H2,1H3,(H,5,6)",QNAYBMKLOCPYGJ-UHFFFAOYSA-N,CC(N)C(O)=O,0.267898616,0.023949308,2,G3,89.094,-0.5818,21.2852,6,2,2,3,1,36,0,0,0,0,63.32,35.76478181,3.257586161,59.81353753
A-2966,"disodium 3-[(E)-2-(5-chloro-2-phenoxyphenyl)diazen-1-yl]-4-hydroxy-5-(4-methylbenzenesulfonamido)naphthalene-2,7-disulfonate","InChI=1S/C29H22ClN3O10S3.2Na/c1-17-7-10-21(11-8-17)44(35,36)33-24-16-22(45(37,38)39)13-18-14-26(46(40,41)42)28(29(34)27(18)24)32-31-23-15-19(30)9-12-25(23)43-20-5-3-2-4-6-20;;/h2-16,31,33H,1H3,(H,37,38,39)(H,40,41,42);;/q;2*+1/p-2/b32-28+;;",UHSRCNCAJFUQHB-RTFAEJQKSA-L,[Na+].[Na+].Cc1ccc(cc1)[S](=O)(=O)Nc2cc(cc3C=C(C(=N/Nc4cc(Cl)ccc4Oc5ccccc5)\C(=O)c23)[S]([O-])(=O)=O)[S]([O-])(=O)=O,-0.667930686,0,1,G1,748.124,-1.29588,167.4231,48,12,2,19,9,238,4,0,1,5,211.26,325.1203257,3.12E-06,2284.663586
A-2967,2-[benzyl(tert-butyl)amino]-1-[4-hydroxy-3-(hydroxymethyl)phenyl]ethan-1-one hydrochloride,"InChI=1S/C20H25NO3.ClH/c1-20(2,3)21(12-15-7-5-4-6-8-15)13-19(24)16-9-10-18(23)17(11-16)14-22;/h4-11,22-23H,12-14H2,1-3H3;1H",QXNITHCPVLQQEN-UHFFFAOYSA-N,[H+].[Cl-].CC(C)(C)N(CC(=O)c1ccc(O)c(CO)c1)Cc2ccccc2,-1.348776549,0,1,G1,363.885,0.4844,96.0771,25,4,2,5,6,136,2,0,0,2,60.77,156.5557491,3.12E-06,701.9476361
A-2968,"1,3,3-trimethyl-2-[(1E)-[2-methyl-2-(4-methylphenyl)hydrazin-1-ylidene]methyl]-3H-indol-1-ium chloride","InChI=1S/C20H24N3.ClH/c1-15-10-12-16(13-11-15)23(5)21-14-19-20(2,3)17-8-6-7-9-18(17)22(19)4;/h6-14H,1-5H3;1H/q+1;/p-1",XNBDPEPVMIIATO-UHFFFAOYSA-M,[Cl-].CN(N=CC1=[N+](C)c2ccccc2C1(C)C)c3ccc(C)cc3,-1.329218805,0,1,G1,341.886,1.12722,98.3934,24,2,0,4,3,126,2,0,1,3,18.61,150.2858825,2.08E-06,788.7861897
A-2969,cyclohexanone oxime,"InChI=1S/C6H11NO/c8-7-6-4-2-1-3-5-6/h8H,1-5H2",VEZUQRBDRNJBJY-UHFFFAOYSA-N,ON=C1CCCCC1,-0.849572956,0.032781871,3,G5,113.16,1.7807,32.3065,8,2,1,2,0,46,0,1,1,1,32.59,49.20172518,2.331875649,90.70165767
A-2970,"hexasodium 4-amino-3,6-bis[(E)-2-[5-({4-chloro-6-[(3-sulfonatophenyl)amino]-1,3,5-triazin-2-yl}amino)-2-sulfonatophenyl]diazen-1-yl]-5-hydroxynaphthalene-2,7-disulfonate","InChI=1S/C40H29Cl2N15O19S6.6Na/c41-35-48-37(44-18-3-1-5-22(13-18)77(59,60)61)52-39(50-35)46-20-7-9-26(79(65,66)67)24(15-20)54-56-32-28(81(71,72)73)11-17-12-29(82(74,75)76)33(34(58)30(17)31(32)43)57-55-25-16-21(8-10-27(25)80(68,69)70)47-40-51-36(42)49-38(53-40)45-19-4-2-6-23(14-19)78(62,63)64;;;;;;/h1-16,55H,43H2,(H,59,60,61)(H,62,63,64)(H,65,66,67)(H,68,69,70)(H,71,72,73)(H,74,75,76)(H2,44,46,48,50,52)(H2,45,47,49,51,53);;;;;;/q;6*+1/p-6/b56-54?,57-33-;;;;;;",UILQUTBIXJZSTN-NZHDPOKYSA-H,[Na+].[Na+].[Na+].[Na+].[Na+].[Na+].Nc1c(N=Nc2cc(Nc3nc(Cl)nc(Nc4cccc(c4)[S]([O-])(=O)=O)n3)ccc2[S]([O-])(=O)=O)c(cc5C=C(/C(=N/Nc6cc(Nc7nc(Cl)nc(Nc8cccc(c8)[S]([O-])(=O)=O)n7)ccc6[S]([O-])(=O)=O)C(=O)c15)[S]([O-])(=O)=O)[S]([O-])(=O)=O,-0.957205517,0,1,G1,1418.958,-14.5696,276.4816,88,34,6,48,18,428,7,0,1,8,560.86,640.2778968,4.40E-06,4727.616531
A-2971,(2S)-pyrrolidine-2-carboxylic acid,"InChI=1S/C5H9NO2/c7-5(8)4-2-1-3-6-4/h4,6H,1-3H2,(H,7,8)",ONIBWKKTOPOVIA-UHFFFAOYSA-N,OC(=O)C1CCCN1,1.129135649,0.466957588,3,G5,115.132,-0.177,28.6605,8,2,2,3,1,46,0,1,1,1,49.33,47.69880637,2.349936739,96.6017922
A-2972,calcium bis(phosphinate),"InChI=1S/Ca.2HO2P/c;2*1-3-2/h;2*(H,1,2)/q+2;;/p-2",LITFOGPYONJRNO-UHFFFAOYSA-L,[Ca++].[O-]P=O.[O-]P=O,-0.032644921,0.059481913,2,G3,166.022,-1.274,20.967,7,4,0,7,0,36,0,0,0,0,80.26,73.49733557,-4.00E-08,30.67103446
A-2973,azanium; 2-[3-[bis(2-oxido-2-oxoethyl)amino]propyl-(2-oxido-2-oxoethyl)amino]acetate; iron(+3) cation,"InChI=1S/C11H18N2O8.Fe.H3N/c14-8(15)4-12(5-9(16)17)2-1-3-13(6-10(18)19)7-11(20)21;;/h1-7H2,(H,14,15)(H,16,17)(H,18,19)(H,20,21);;1H3/q;+3;/p-3",HXPRIPOCSQBZIN-UHFFFAOYSA-K,[NH4+].[Fe+3].[O-]C(=O)CN(CCCN(CC([O-])=O)CC([O-])=O)CC([O-])=O,0.105005622,0,1,G1,376.123,-6.6462,63.5098,23,10,1,12,12,133,0,0,0,0,203.5,142.4627336,-2.00E-06,338.7328387
A-2975,"disodium 4,4'-bis[(4-anilino-6-methoxy-1,3,5-triazin-2-yl)amino]stilbene-2,2'-disulphonate","InChI=1S/C34H30N10O8S2.2Na/c1-51-33-41-29(35-23-9-5-3-6-10-23)39-31(43-33)37-25-17-15-21(27(19-25)53(45,46)47)13-14-22-16-18-26(20-28(22)54(48,49)50)38-32-40-30(42-34(44-32)52-2)36-24-11-7-4-8-12-24;;/h3-20H,1-2H3,(H,45,46,47)(H,48,49,50)(H2,35,37,39,41,43)(H2,36,38,40,42,44);;/q;2*+1/p-2/b14-13+;;",BDYOOAPDMVGPIQ-QDBORUFSSA-L,[Na+].[Na+].COc1nc(Nc2ccccc2)nc(Nc3ccc(\C=C\c4ccc(Nc5nc(Nc6ccccc6)nc(OC)n5)cc4[S]([O-])(=O)=O)c(c3)[S]([O-])(=O)=O)n1,-1.761510148,0,1,G1,814.774,-0.9652,196.5112,56,18,4,22,14,276,6,0,0,6,258.32,365.3155379,3.48E-06,2382.234215
A-2976,"sodium 7-amino-8-[(E)-2-{4-chloro-3-[(2,4-dimethylphenyl)sulfamoyl]phenyl}diazen-1-yl]-3-sulfonaphthalen-1-olate","InChI=1S/C24H21ClN4O6S2.Na/c1-13-3-8-20(14(2)9-13)29-36(31,32)22-11-16(5-6-18(22)25)27-28-24-19(26)7-4-15-10-17(37(33,34)35)12-21(30)23(15)24;/h3-12,26-29H,1-2H3,(H,33,34,35);/q;+1/p-1",NFIWAOOZVZVNHC-UHFFFAOYSA-M,[Na+].Cc1ccc(N[S](=O)(=O)c2cc(NNC3=C4C(=O)C=C(C=C4C=CC3=N)[S]([O-])(=O)=O)ccc2Cl)c(C)c1,-0.630871318,0,1,G1,583.023,0.46001,139.6978,38,9,4,14,7,192,2,0,2,4,168.35,246.6704017,4.00E-06,1710.820114
A-2977,sodium 4-[(2-hydroxy-1-naphthyl)diazenyl]-3-methylbenzenesulfonate,"InChI=1S/C17H14N2O4S.Na/c1-11-10-13(24(21,22)23)7-8-15(11)18-19-17-14-5-3-2-4-12(14)6-9-16(17)20;/h2-10,18H,1H3,(H,21,22,23);/q;+1/p-1/b19-17+;",SIHMAENIPOJURU-ZJSKVYKZSA-M,[Na+].Cc1cc(ccc1N\N=C2\C(=O)C=Cc3ccccc23)[S]([O-])(=O)=O,-0.43660043,0,1,G1,364.358,-0.68478,89.7849,25,6,1,8,3,122,2,0,1,3,98.66,167.2366521,2.25E-06,997.4574818
A-2980,"disodium 5-acetamido-4-hydroxy-3-[(E)-2-phenyldiazen-1-yl]naphthalene-2,7-disulfonate","InChI=1S/C18H15N3O8S2.2Na/c1-10(22)19-14-9-13(30(24,25)26)7-11-8-15(31(27,28)29)17(18(23)16(11)14)21-20-12-5-3-2-4-6-12;;/h2-9,20H,1H3,(H,19,22)(H,24,25,26)(H,27,28,29);;/q;2*+1/p-2/b21-17+;;",YCUAAHNYYJTUJO-PJPLBZAPSA-L,[Na+].[Na+].CC(=O)Nc1cc(cc2C=C(\C(=N/Nc3ccccc3)C(=O)c12)[S]([O-])(=O)=O)[S]([O-])(=O)=O,-0.586608448,0,1,G1,509.429,-4.8924,108.2133,33,10,2,15,5,162,2,0,1,3,184.96,233.3550142,2.72E-06,1372.899874
A-2981,"N,N-dimethylcyclohexanamine","InChI=1S/C8H17N/c1-9(2)8-6-4-3-5-7-8/h8H,3-7H2,1-2H3",SVYKKECYCPFKGB-UHFFFAOYSA-N,CN(C)C1CCCCC1,-0.977488142,0,1,G1,127.231,1.8807,40.56,9,1,0,1,1,54,0,1,1,1,3.24,58.04784835,2.228362115,72.63682062
A-2982,dilithium(1+) ion carbonate,"InChI=1S/CH2O3.2Li/c2-1(3)4;;/h(H2,2,3,4);;/q;2*+1/p-2",XGZVUEUWXADBQD-UHFFFAOYSA-L,[Li+].[Li+].[O-]C([O-])=O,-0.754642314,0.094832033,2,G3,73.89,-8.439,5.396,6,3,0,5,0,24,0,0,0,0,63.19,59.08437168,-4.50E-08,31.77443751
A-2983,disodium 6-acetamido-4-hydroxy-3-[(4-{[2-(sulfonatooxy)ethyl]sulfonyl}phenyl)diazenyl]naphthalene-2-sulfonate,"InChI=1S/C20H19N3O11S3.2Na/c1-12(24)21-15-3-2-13-10-18(36(28,29)30)19(20(25)17(13)11-15)23-22-14-4-6-16(7-5-14)35(26,27)9-8-34-37(31,32)33;;/h2-7,10-11,22H,8-9H2,1H3,(H,21,24)(H,28,29,30)(H,31,32,33);;/q;2*+1/p-2/b23-19+;;",AAGPPJSKCWSVCQ-GHEHHKQRSA-L,[Na+].[Na+].CC(=O)Nc1ccc2C=C(\C(=N/Nc3ccc(cc3)[S](=O)(=O)CCO[S]([O-])(=O)=O)C(=O)c2c1)[S]([O-])(=O)=O,-0.679407503,0,1,G1,617.547,-5.546,127.9521,39,13,2,19,9,198,2,0,1,3,228.33,268.0328459,3.80E-06,1653.924339
A-2984,"hydrogen [4-[[4-(diethylamino)phenyl][4-[ethyl(3-sulphonatobenzyl)amino]phenyl]methylene]cyclohexa-2,5-dien-1-ylidene](ethyl)(3-sulphonatobenzyl)ammonium, sodium salt","InChI=1S/C41H45N3O6S2.Na/c1-5-42(6-2)36-21-15-33(16-22-36)41(34-17-23-37(24-18-34)43(7-3)29-31-11-9-13-39(27-31)51(45,46)47)35-19-25-38(26-20-35)44(8-4)30-32-12-10-14-40(28-32)52(48,49)50;/h9-28H,5-8,29-30H2,1-4H3,(H-,45,46,47,48,49,50);/q;+1/p-1",FJBHGWADYLMEJG-UHFFFAOYSA-M,[Na+].CCN(CC)c1ccc(cc1)[C+](c2ccc(cc2)N(CC)Cc3cccc(c3)[S]([O-])(=O)=O)c4ccc(cc4)N(CC)Cc5cccc(c5)[S]([O-])(=O)=O,-0.77170269,0,1,G1,761.942,4.41719,205.6944,53,9,0,12,16,272,5,0,0,5,124.12,336.6243159,6.27E-06,2030.448681
A-2985,(6-aminohexyl)carbamic acid,"InChI=1S/C7H16N2O2/c8-5-3-1-2-4-6-9-7(10)11/h9H,1-6,8H2,(H,10,11)",HDIHOAXFFROQHR-UHFFFAOYSA-N,NCCCCCCNC(O)=O,-0.095298805,0,1,G1,160.217,0.7731,43.5499,11,2,3,4,6,66,0,0,0,0,75.35,66.77441245,2.849761282,106.613696
A-2987,lithium(1+) ion trifluoromethanesulfonate,"InChI=1S/CHF3O3S.Li/c2-1(3,4)8(5,6)7;/h(H,5,6,7);",WDGKXRCNMKPDSD-UHFFFAOYSA-N,[Li].O[S](=O)(=O)C(F)(F)F,0.903040198,0,1,G1,157.018,0.0132,23.3576,9,2,1,8,0,51,0,0,0,0,54.37,61.16205877,0,167.9871068
A-2988,amino(imino)methanaminium nitrate,"InChI=1S/CH5N3.HNO3/c2*2-1(3)4/h(H5,2,3,4);(H,2,3,4)",CNUNWZZSUJPAHX-UHFFFAOYSA-N,NC(N)=N.O[N+]([O-])=O,0.010251263,0,1,G1,122.084,-1.50913,24.8824,8,3,4,7,0,48,0,0,0,0,139.26,44.51146255,0,69.28421252
A-2991,2-(2-ethoxyethoxy)ethyl prop-2-enoate,"InChI=1S/C9H16O4/c1-3-9(10)13-8-7-12-6-5-11-4-2/h3H,1,4-8H2,2H3",FTALTLPZDVFJSS-UHFFFAOYSA-N,CCOCCOCCOC(=O)C=C,-0.181251006,0,1,G1,188.223,0.7687,48.468,13,4,0,4,8,76,0,0,0,0,44.76,78.4713427,2.990886995,144.5501279
A-2993,butanedinitrile,InChI=1S/C4H4N2/c5-3-1-2-4-6/h1-2H2,IAHFWCOBPZCAEA-UHFFFAOYSA-N,N#CCCC#N,0.175240889,0.012321219,2,G3,80.09,0.81376,20.46,6,2,0,2,1,30,0,0,0,0,47.58,36.61923673,2.783540828,79.09616281
A-2994,"disodium 3-[(E)-2-[4-(1-{4-[(E)-2-(1,7-dihydroxy-3-sulfonatonaphthalen-2-yl)diazen-1-yl]-3-methylphenyl}cyclohexyl)-2-methylphenyl]diazen-1-yl]-4,6-dihydroxynaphthalene-2-sulfonate","InChI=1S/C40H36N4O10S2.2Na/c1-22-16-26(8-12-32(22)41-43-36-34(55(49,50)51)18-24-6-10-28(45)20-30(24)38(36)47)40(14-4-3-5-15-40)27-9-13-33(23(2)17-27)42-44-37-35(56(52,53)54)19-25-7-11-29(46)21-31(25)39(37)48;;/h6-13,16-21,41-44H,3-5,14-15H2,1-2H3,(H,49,50,51)(H,52,53,54);;/q;2*+1/p-2",FEGFQZKEEWPHPY-UHFFFAOYSA-L,[Na+].[Na+].Cc1cc(ccc1NNC2=C(C=C3C=CC(=O)C=C3C2=O)[S]([O-])(=O)=O)C4(CCCCC4)c5ccc(NNC6=C(C=C7C=CC(=O)C=C7C6=O)[S]([O-])(=O)=O)c(C)c5,-0.854788461,0,1,G1,840.844,-1.94296,203.8262,58,14,4,18,10,288,2,1,5,7,230.8,379.0307769,3.20E-06,2488.20658
A-2999,benzenesulfonic acid,"InChI=1S/C6H6O3S/c7-10(8,9)6-4-2-1-3-5-6/h1-5H,(H,7,8,9)",SRSXLGNVWSONIS-UHFFFAOYSA-N,O[S](=O)(=O)c1ccccc1,0.848907093,0,1,G1,158.178,0.9333,36.2566,10,2,1,4,1,54,1,0,0,1,54.37,59.06003913,3.218646629,301.0246306
A-3000,xylenesulphonic acid,"InChI=1S/C8H10O3S/c1-6-4-3-5-8(7(6)2)12(9,10)11/h3-5H,1-2H3,(H,9,10,11)",ZZXDRXVIRVJQBT-UHFFFAOYSA-N,Cc1cccc(c1C)[S](O)(=O)=O,0.777998866,0.075355465,4,G5,186.232,1.55014,45.7306,12,2,1,4,1,66,1,0,0,1,54.37,71.78992336,3.468478535,392.7640418
A-3001,"sodium hydrogen 4-amino-5-hydroxynaphthalene-2,7-disulfonate","InChI=1S/C10H9NO7S2.Na/c11-8-3-6(19(13,14)15)1-5-2-7(20(16,17)18)4-9(12)10(5)8;/h1-4,12H,11H2,(H,13,14,15)(H,16,17,18);/q;+1/p-1",QPILZZVXGUNELN-UHFFFAOYSA-M,[Na+].Nc1cc(cc2cc(cc(O)c12)[S]([O-])(=O)=O)[S](O)(=O)=O,-1.476228892,0,1,G1,341.298,-2.7176,67.803,21,7,3,11,2,108,2,0,0,2,157.82,141.9178637,2.20E-06,849.312021
A-3002,oxalic acid,"InChI=1S/C2H2O4/c3-1(4)2(5)6/h(H,3,4)(H,5,6)",MUBZPKHOEPUJKR-UHFFFAOYSA-N,OC(=O)C(O)=O,0.07901721,0.585795927,3,G4,90.034,-0.8444,15.2716,6,2,2,4,0,34,0,0,0,0,74.6,33.01570485,3.567703455,71.54887502
A-3003,potassium trihydrogen diethanedioate,"InChI=1S/2C2H2O4.K/c2*3-1(4)2(5)6;/h2*(H,3,4)(H,5,6);",INYYFFJLLWWJOT-UHFFFAOYSA-N,[K].OC(=O)C(O)=O.OC(=O)C(O)=O,-0.307349426,0.317741873,2,G3,219.166,-2.0696,36.2972,13,4,4,9,0,69,0,0,0,0,149.2,113.5854966,-1.43E-07,172.1839164
A-3004,lithium(1+) ion nitrate,InChI=1S/Li.NO3/c;2-1(3)4/q+1;-1,IIPYXGDZVMZOAP-UHFFFAOYSA-N,[Li+].[O-][N+]([O-])=O,1.170097396,0,1,G1,68.945,-3.2351,10.3614,5,3,0,5,0,24,0,0,0,0,66.2,40.07312241,0,29.87430298
A-3005,2-(butylamino)ethan-1-ol,"InChI=1S/C6H15NO/c1-2-3-4-7-5-6-8/h7-8H,2-6H2,1H3",LJDSTRZHPWMDPG-UHFFFAOYSA-N,CCCCNCCO,0.931102034,0,1,G1,117.192,0.3684,34.8635,8,2,2,2,5,50,0,0,0,0,32.26,50.90805754,2.530060457,33.509775
A-3006,2-(methylamino)ethan-1-ol,"InChI=1S/C3H9NO/c1-4-2-3-5/h4-5H,2-3H2,1H3",OPKOKAMJFNKNAS-UHFFFAOYSA-N,CNCCO,1.124296456,0,1,G1,75.111,-0.8019,21.0125,5,2,2,2,2,32,0,0,0,0,32.26,31.81323119,2.190609687,14.36452798
A-3007,2-aminoethan-1-ol,"InChI=1S/C2H7NO/c3-1-2-4/h4H,1-3H2",HZAXFHJVJLSVMW-UHFFFAOYSA-N,NCCO,1.214072532,0,1,G1,61.084,-1.0626,16.1402,4,2,2,2,1,26,0,0,0,0,46.25,25.23831759,1.974744871,8
A-3008,"N,N-dimethylformamide","InChI=1S/C3H7NO/c1-4(2)3-5/h3H,1-2H3",ZMXDDKWLCZADIW-UHFFFAOYSA-N,CN(C)C=O,1.13611233,0,1,G1,73.095,-0.2956,19.751,5,1,0,2,1,30,0,0,0,0,20.31,31.39049103,2.825749369,33.87430298
A-3009,chromium(3+) ion hydroxide sulfate,"InChI=1S/Cr.H2O4S.H2O/c;1-5(2,3)4;/h;(H2,1,2,3,4);1H2/q+3;;/p-3",DSHWASKZZBZKOE-UHFFFAOYSA-K,[OH-].[Cr+3].[O-][S]([O-])(=O)=O,0.782342373,1.849485002,2,G2,165.066,-1.5173,12.4104,7,5,0,7,0,43,0,0,0,0,110.26,51.36044897,-8.00E-08,91.24856185
A-3010,disodium sulfanediide,InChI=1S/Na.H2S/h;1H2/q+1;,HYHCSLBZRBJJCH-UHFFFAOYSA-N,[Na+].S,1.243569299,0,1,G1,57.073,-2.8832,10.381,2,0,0,2,0,8,0,0,0,0,0,42.97473184,0,2
A-3017,sodium 3-[(E)-2-[5-(diethylsulfamoyl)-2-methoxyphenyl]diazen-1-yl]-4-hydroxynaphthalene-1-sulfonate,"InChI=1S/C21H23N3O7S2.Na/c1-4-24(5-2)32(26,27)14-10-11-19(31-3)17(12-14)22-23-18-13-20(33(28,29)30)15-8-6-7-9-16(15)21(18)25;/h6-13,22H,4-5H2,1-3H3,(H,28,29,30);/q;+1/p-1/b23-18+;",AGXNLHROVWJXBE-XHMOQMQQSA-M,[Na+].CCN(CC)[S](=O)(=O)c1ccc(OC)c(N\N=C\2C=C(c3ccccc3C2=O)[S]([O-])(=O)=O)c1,-2.466753911,0,1,G1,515.545,-0.7198,122.6052,34,9,1,13,8,176,2,0,1,3,145.27,220.3305754,4.08E-06,1366.485884
A-3018,ethyl N-ethyl-N-phenylcarbamate,"InChI=1S/C11H15NO2/c1-3-12(11(13)14-4-2)10-8-6-5-7-9-10/h5-9H,3-4H2,1-2H3",XEFYPTRGVWLMHB-UHFFFAOYSA-N,CCOC(=O)N(CC)c1ccccc1,0.867399476,0,1,G1,193.246,2.6694,56.484,14,2,0,3,3,76,1,0,0,1,29.54,84.29101469,2.768460309,284.5988225
A-3021,4-(4-hydroxybenzenesulfonyl)phenol,"InChI=1S/C12H10O4S/c13-9-1-5-11(6-2-9)17(15,16)12-7-3-10(14)4-8-12/h1-8,13-14H",VPWNQTHUCYMVMZ-UHFFFAOYSA-N,Oc1ccc(cc1)[S](=O)(=O)c2ccc(O)cc2,-2.357024785,0,1,G1,250.275,1.9306,61.6654,17,4,2,5,2,88,2,0,0,2,74.6,98.70236321,2.496128967,561.0601342
A-3024,"1-(2,4-dihydroxy-6-{[(2S,3R,4S,5S,6R)-3,4,5-trihydroxy-6-(hydroxymethyl)oxan-2-yl]oxy}phenyl)-3-(4-hydroxyphenyl)propan-1-one","InChI=1S/C21H24O10/c22-9-16-18(27)19(28)20(29)21(31-16)30-15-8-12(24)7-14(26)17(15)13(25)6-3-10-1-4-11(23)5-2-10/h1-2,4-5,7-8,16,18-24,26-29H,3,6,9H2/t16-,18-,19+,20-,21-/m1/s1",IOUVKUPGCMBWBT-QNDFHXLGSA-N,OC[C@H]1O[C@@H](Oc2cc(O)cc(O)c2C(=O)CCc3ccc(O)cc3)[C@H](O)[C@@H](O)[C@@H]1O,-2.639897679,0,1,G1,436.413,-0.2024,104.9251,31,10,7,10,7,168,2,1,1,3,177.14,176.715394,1.818087176,911.1216231
A-3025,3-chloro-2-methylaniline,"InChI=1S/C7H8ClN/c1-5-6(8)3-2-4-7(5)9/h2-4H,9H2,1H3",ZUVPLKVDZNDZCM-UHFFFAOYSA-N,Cc1c(N)cccc1Cl,-2.15106632,0.326606257,2,G3,141.601,2.23062,40.6014,9,1,1,2,0,48,1,0,0,1,26.02,59.43950216,3.247834734,199.9061776
A-3027,2-phenylethyl acetate,"InChI=1S/C10H12O2/c1-9(11)12-8-7-10-5-3-2-4-6-10/h2-6H,7-8H2,1H3",MDHYEMXUFSJLGV-UHFFFAOYSA-N,CC(=O)OCCc1ccccc1,-2.231757445,0,1,G1,164.204,1.7922,46.779,12,2,0,2,3,64,1,0,0,1,26.3,72.16623891,2.290572056,241.275309
A-3028,5-(dithiolan-3-yl)valeric acid,"InChI=1S/C8H14O2S2/c9-8(10)4-2-1-3-7-5-6-11-12-7/h7H,1-6H2,(H,9,10)",AGBQKNBQESQNJD-UHFFFAOYSA-N,OC(=O)CCCCC1CCSS1,-2.375047335,0,1,G1,206.332,2.7851,54.5578,12,3,1,4,5,70,0,1,1,1,37.3,80.88995266,1.908922634,143.9932866
A-3029,2-(2-methylphenoxymethyl)oxirane,"InChI=1S/C10H12O2/c1-8-4-2-3-5-10(8)12-7-9-6-11-9/h2-5,9H,6-7H2,1H3",KFUSXMDYOPXKKT-UHFFFAOYSA-N,Cc1ccccc1OCC2CO2,-2.291104446,0,1,G1,164.204,1.77262,46.414,12,2,0,2,3,64,1,1,1,2,21.76,72.11243088,1.960480417,266.2960188
A-3030,bis(trimethyl(tetradecyl)azanium) oxalate,"InChI=1S/2C17H38N.C2H2O4/c2*1-5-6-7-8-9-10-11-12-13-14-15-16-17-18(2,3)4;3-1(4)2(5)6/h2*5-17H2,1-4H3;(H,3,4)(H,5,6)/q2*+1;/p-2",XNYQOAOGCKKCNI-UHFFFAOYSA-L,CCCCCCCCCCCCCC[N+](C)(C)C.CCCCCCCCCCCCCC[N+](C)(C)C.[O-]C(=O)C([O-])=O,-2.898070996,1.348051682,2,G2,601.014,7.2736,177.9688,42,4,0,6,26,254,0,0,0,0,80.26,263.3750094,-6.07E-07,517.7261007
A-3034,2-[4-(2-sulfoethyl)piperazin-1-yl]ethane-1-sulfonic acid,"InChI=1S/C8H18N2O6S2.Na/c11-17(12,13)7-5-9-1-2-10(4-3-9)6-8-18(14,15)16;/h1-8H2,(H,11,12,13)(H,14,15,16);/q;+1/p-1",OGGAIRCLBMGXCZ-UHFFFAOYSA-M,[Na+].O[S](=O)(=O)CCN1CCN(CC1)CC[S]([O-])(=O)=O,-2.747593942,0,1,G1,324.356,-4.959,63.8598,19,7,1,11,6,108,0,1,1,1,118.05,135.4783537,3.24E-06,413.6308302
A-3035,"5-chloro-1-(piperidin-4-yl)-2,3-dihydro-1H-1,3-benzodiazol-2-one","InChI=1S/C12H14ClN3O/c13-8-1-2-11-10(7-8)15-12(17)16(11)9-3-5-14-6-4-9/h1-2,7,9,14H,3-6H2,(H,15,17)/p+1",DOAYWDKFDPSTSV-UHFFFAOYSA-O,Clc1ccc2N(C3CC[NH2+]CC3)C(=O)Nc2c1,-2.663075861,0,1,G1,252.725,0.8813,67.4991,17,2,2,5,1,90,2,1,1,3,54.4,103.5853775,2.141206047,595.3068153
A-3043,"3,5,5-trimethylhexanal","InChI=1S/C9H18O/c1-8(5-6-10)7-9(2,3)4/h6,8H,5,7H2,1-4H3",WTPYRCJDOZVZON-UHFFFAOYSA-N,CC(CC=O)CC(C)(C)C,-2.675906595,0.259428991,3,G5,142.242,2.6477,43.917,10,1,0,1,3,60,0,0,0,0,17.07,63.82031004,3.564393333,99.78611875
A-3047,"1,2-dichlorobenzene",InChI=1S/C6H4Cl2/c7-5-3-1-2-4-6(5)8/h1-4H,RFFLAFLAYFXFSW-UHFFFAOYSA-N,Clc1ccccc1Cl,-3.0533858,0.079735761,8,G5,147.004,2.9934,36.462,8,0,0,2,0,42,1,0,0,1,0,58.03793557,3.134861511,162.6383389
A-3049,(E)-anethole,"InChI=1S/C10H12O/c1-3-4-9-5-7-10(11-2)8-6-9/h3-8H,1-2H3/b4-3+",RUVINXPYWBROJD-ONEGZZNKSA-N,COc1ccc(\C=C\C)cc1,-3.125539877,0,1,G1,148.205,2.7283,47.702,11,1,0,1,2,58,1,0,0,1,9.23,67.31511377,2.824041735,233.5546193
A-3053,chromium(3+) ion trichloride,InChI=1S/3ClH.Cr/h3*1H;/q;;;+3/p-3,QSWDMMVNRMROPK-UHFFFAOYSA-K,[Cl-].[Cl-].[Cl-].[Cr+3],-3.199631781,1.92254902,2,G2,158.355,-8.9905,0,4,0,0,4,0,27,0,0,0,0,0,54.70127051,0,3.245112498
A-3054,"4-(2-{2-amino-4-oxo-3H,4H,7H-pyrrolo[2,3-d]pyrimidin-5-yl}ethyl)benzoic acid","InChI=1S/C15H14N4O3/c16-15-18-12-11(13(20)19-15)10(7-17-12)6-3-8-1-4-9(5-2-8)14(21)22/h1-2,4-5,7H,3,6H2,(H,21,22)(H4,16,17,18,19,20)",AIZPFZIKHIJCQX-UHFFFAOYSA-N,NC1=Nc2[nH]cc(CCc3ccc(cc3)C(O)=O)c2C(=O)N1,-3.574289036,1.492515047,4,G4,298.302,1.3168,81.9361,22,4,4,7,4,112,3,0,0,3,124.86,124.3706132,1.820494461,893.2867138
A-3055,methane dimolybdenum,InChI=1S/CH4.2Mo/h1H4;;,JAGQSESDQXCFCH-UHFFFAOYSA-N,C.[Mo].[Mo],-3.420275441,0.409222923,2,G3,207.923,0.6311,6.731,3,0,0,2,0,20,0,0,0,0,0,49.51542721,0,2.754887502
A-3060,sodium (2S)-1-hexadecanoyl-5-oxopyrrolidine-2-carboxylate,"InChI=1S/C21H37NO4.Na/c1-2-3-4-5-6-7-8-9-10-11-12-13-14-15-19(23)22-18(21(25)26)16-17-20(22)24;/h18H,2-17H2,1H3,(H,25,26);/q;+1/p-1/t18-;/m0./s1",YHJSWPBXHVITHU-FERBBOLQSA-M,[Na+].CCCCCCCCCCCCCCCC(=O)N1[C@@H](CCC1=O)C([O-])=O,-4.022319118,0,1,G1,389.512,0.7392,100.194,27,4,0,6,15,150,0,1,1,1,77.51,186.4842955,6.76E-06,441.8975443
A-3061,"ethyl N,N-diphenylcarbamate","InChI=1S/C15H15NO2/c1-2-18-15(17)16(13-9-5-3-6-10-13)14-11-7-4-8-12-14/h3-12H,2H2,1H3",HKTSLDUAGCAISP-UHFFFAOYSA-N,CCOC(=O)N(c1ccccc1)c2ccccc2,-3.969239559,0,1,G1,241.29,3.9812,72.045,18,2,0,3,3,92,2,0,0,2,29.54,106.6182247,2.384601326,456.9167555
A-3064,dialuminum hexacalcium oxygen(-2) anion trisulfate,"InChI=1S/2Al.6Ca.3H2O4S.6O/c;;;;;;;;3*1-5(2,3)4;;;;;;/h;;;;;;;;3*(H2,1,2,3,4);;;;;;/q2*+3;6*+2;;;;6*-2/p-6",FRPRHMFFTRIJHL-UHFFFAOYSA-H,[O--].[O--].[O--].[O--].[O--].[O--].[Al+3].[Al+3].[Ca++].[Ca++].[Ca++].[Ca++].[Ca++].[Ca++].[O-][S]([O-])(=O)=O.[O-][S]([O-])(=O)=O.[O-][S]([O-])(=O)=O,-3.074227426,0,1,G1,678.615,-7.7732,81.5748,29,12,0,29,0,144,0,0,0,0,411.78,367.6077467,-4.00E-09,364.5016025