ID,Name,InChI,InChIKey,SMILES,Solubility,SD,Ocurrences,Group,MolWt,MolLogP,MolMR,HeavyAtomCount,NumHAcceptors,NumHDonors,NumHeteroatoms,NumRotatableBonds,NumValenceElectrons,NumAromaticRings,NumSaturatedRings,NumAliphaticRings,RingCount,TPSA,LabuteASA,BalabanJ,BertzCT
A-3514,phenyl acetate,"InChI=1S/C8H8O2/c1-7(9)10-8-5-3-2-4-6-8/h2-6H,1H3",IPBVNPXQWQGGJP-UHFFFAOYSA-N,CC(=O)Oc1ccccc1,-1.373595162,0,1,G1,136.15,1.6119,37.751,10,2,0,2,1,52,1,0,0,1,26.3,59.43635468,2.674241602,215.9590175
A-3515,chloroethane,"InChI=1S/C2H5Cl/c1-2-3/h2H2,1H3",HRYZWHHZPQKTII-UHFFFAOYSA-N,CCCl,-1.050748809,0,1,G1,64.515,1.2451,16.394,3,0,0,1,0,20,0,0,0,0,0,25.40745937,1.632993162,2.754887502
A-3516,"4,6-dichloropyrimidine",InChI=1S/C4H2Cl2N2/c5-3-1-4(6)8-2-7-3/h1-2H,XJPZKYIHCLDXST-UHFFFAOYSA-N,Clc1cc(Cl)ncn1,-1.417253114,0,1,G1,148.98,1.7834,32.052,8,2,0,4,0,42,1,0,0,1,25.78,56.47723154,3.077660438,171.8981139
A-3517,"trisodium 4-amino-5-hydroxy-3-[(E)-2-{4-[(E)-2-[2-oxo-1-(phenylcarbamoyl)propyl]diazen-1-yl]phenyl}diazen-1-yl]-6-[(E)-2-(4-sulfonatonaphthalen-1-yl)diazen-1-yl]naphthalene-2,7-disulfonate","InChI=1S/C36H28N8O12S3.3Na/c1-19(45)32(36(47)38-21-7-3-2-4-8-21)42-39-22-11-13-23(14-12-22)40-43-33-28(58(51,52)53)17-20-18-29(59(54,55)56)34(35(46)30(20)31(33)37)44-41-26-15-16-27(57(48,49)50)25-10-6-5-9-24(25)26;;;/h2-18,32,41H,37H2,1H3,(H,38,47)(H,48,49,50)(H,51,52,53)(H,54,55,56);;;/q;3*+1/p-3/b42-39?,43-40?,44-34+;;;",ZZXARQYSWIVLGM-ICCBSFAUSA-K,[Na+].[Na+].[Na+].CC(=O)C(N=Nc1ccc(cc1)N=Nc2c(N)c3c(cc2[S]([O-])(=O)=O)C=C(\C(=N/Nc4ccc(c5ccccc45)[S]([O-])(=O)=O)C3=O)[S]([O-])(=O)=O)C(=O)Nc6ccccc6,-2.218028318,0,1,G1,926.811,-4.1119,208.4659,62,19,3,26,12,302,5,0,1,6,334.69,419.3177555,3.41E-06,3061.438268
A-3518,"2,4-dimethylaniline","InChI=1S/C8H11N/c1-6-3-4-8(9)7(2)5-6/h3-5H,9H2,1-2H3",CZZZABOKJQXEBO-UHFFFAOYSA-N,Cc1ccc(N)c(C)c1,-1.335253673,0,1,G1,121.183,1.88564,40.3284,9,1,1,1,0,48,1,0,0,1,26.02,55.50117805,3.17167803,215.8076621
A-3519,2-chloroaniline,"InChI=1S/C6H6ClN/c7-5-3-1-2-4-6(5)8/h1-4H,8H2",AKCRQHGQIJBRMN-UHFFFAOYSA-N,Nc1ccccc1Cl,-1.357574146,0.116418068,4,G5,127.574,1.9222,35.8644,8,1,1,2,0,42,1,0,0,1,26.02,53.07456004,3.134861511,164.6383389
A-3521,phenyl diamidophosphate,"InChI=1S/C6H9N2O2P/c7-11(8,9)10-6-4-2-1-3-5-6/h1-5H,(H4,7,8,9)",AYRRNFHDJUXLEQ-UHFFFAOYSA-N,N[P](N)(=O)Oc1ccccc1,-1.487653403,0,1,G1,172.124,1.0909,43.0513,11,2,2,5,2,60,1,0,0,1,78.34,64.71341865,2.736661467,269.1705891
A-3523,"sodium 2-{[4-(cyclohexylamino)-9,10-dioxo-9,10-dihydroanthracen-1-yl]amino}-5-ethoxybenzene-1-sulfonate","InChI=1S/C28H28N2O6S.Na/c1-2-36-22-13-8-11-18-24(22)28(32)26-20(29-17-9-4-3-5-10-17)15-16-21(25(26)27(18)31)30-19-12-6-7-14-23(19)37(33,34)35;/h6-8,11-17,29-30H,2-5,9-10H2,1H3,(H,33,34,35);/q;+1/p-1",OOGKHVOWEZVKKU-UHFFFAOYSA-M,[Na+].CCOc1cccc2C(=O)c3c(Nc4ccccc4[S]([O-])(=O)=O)ccc(NC5CCCCC5)c3C(=O)c12,-1.987836786,0,1,G1,542.589,2.257,139.1016,38,8,2,10,7,192,3,1,2,5,124.63,243.7616998,3.36E-06,1499.173766
A-3525,"2-methylpentane-1,5-diamine","InChI=1S/C6H16N2/c1-6(5-8)3-2-4-7/h6H,2-5,7-8H2,1H3",JZUHIOJYCPIVLQ-UHFFFAOYSA-N,CC(CN)CCCN,-1.327248701,1.108127592,2,G2,116.208,0.3201,36.5068,8,2,2,2,4,50,0,0,0,0,52.04,51.24374299,2.862065598,45.7931939
A-3526,"6-amino-1,3-dimethyl-1,2,3,4-tetrahydropyrimidine-2,4-dione","InChI=1S/C6H9N3O2/c1-8-4(7)3-5(10)9(2)6(8)11/h3H,7H2,1-2H3",VFGRNTYELNYSKJ-UHFFFAOYSA-N,CN1C(=CC(=O)N(C)C1=O)N,-1.453578731,0,1,G1,155.157,-1.3338,41.3364,11,5,1,5,0,60,1,0,0,1,70.02,62.68346118,3.735746175,387.794361
A-3527,6-pent-3-en-1-yltetrahydro-2H-pyran-2-one,"InChI=1S/C10H16O2/c1-2-3-4-6-9-7-5-8-10(11)12-9/h2-3,9H,4-8H2,1H3/b3-2+",NBCMACYORPIYNY-NSCUHMNNSA-N,C/C=C/CCC1CCCC(=O)O1,-1.488726291,0.014610102,2,G3,168.236,2.4384,47.779,12,2,0,2,3,68,0,1,1,1,26.3,73.6033632,2.179877273,172.6773929
A-3528,potassium tetrafluoroboranuide,"InChI=1S/BF4.K/c2-1(3,4)5;/q-1;+1",AKEBROIVCDHVSD-UHFFFAOYSA-N,[K+].F[B-](F)(F)F,-1.367638869,0,1,G1,125.902,-1.696,10.186,6,0,0,6,0,32,0,0,0,0,0,74.81422737,0,23.01955001
A-3530,2-hydroxy-3-phenoxypropyl prop-2-enoate,"InChI=1S/C12H14O4/c1-2-8-15-12(14)11(13)9-16-10-6-4-3-5-7-10/h3-7,9,13H,2,8H2,1H3/b11-9-",FOKZHJCFBNVOAV-LUAWRHEFSA-N,CCCOC(=O)C(/O)=C/Oc1ccccc1,-1.622546359,0,1,G1,222.24,2.418,59.0318,16,4,1,4,5,86,1,0,0,1,55.76,94.11429908,2.47620762,356.5413267
A-3532,"2,6-diamino-1,4-dihydropyrimidin-4-one","InChI=1S/C4H6N4O/c5-2-1-3(9)8-4(6)7-2/h1H,(H5,5,6,7,8,9)",SWELIMKTDYHAOY-UHFFFAOYSA-N,NC1=CC(=O)N=C(N)N1,-1.378146596,0,1,G1,126.119,-1.0657,33.6825,9,4,3,5,0,48,1,0,0,1,97.79,50.71200258,3.332334627,242.2652998
A-3533,3-amino-2-chloro-6-methylphenol,"InChI=1S/C7H8ClNO/c1-4-2-3-5(9)6(8)7(4)10/h2-3,10H,9H2,1H3",XYRDGCCCBJITBH-UHFFFAOYSA-N,Cc1ccc(N)c(Cl)c1O,-1.48155287,0,1,G1,157.6,1.93622,42.2662,10,2,2,3,0,54,1,0,0,1,46.25,64.23373591,3.342153808,233.0281739
A-3534,Diazobarbituric acid,"InChI=1S/C4H2N4O3/c5-8-1-2(9)6-4(11)7-3(1)10/h(H2,6,7,9,10,11)",HBZLKQCYQCZGAN-UHFFFAOYSA-N,[N-]=[N+]=C1C(=O)NC(=O)NC1=O,-1.471757019,0,1,G1,154.085,-1.9768,30.3078,11,3,2,7,0,56,0,1,1,1,111.67,59.99480354,3.01832326,278.4590315
A-3536,"oxydipropane-1,2-diyl bisacrylate","InChI=1S/C12H18O5/c1-5-11(13)16-9(3)7-15-8-10(4)17-12(14)6-2/h5-6,9-10H,1-2,7-8H2,3-4H3",RNJVAUBBYGWVBF-UHFFFAOYSA-N,CC(COCC(C)OC(=O)C=C)OC(=O)C=C,-1.668298088,0,1,G1,242.271,1.2384,62.321,17,5,0,5,8,96,0,0,0,0,61.83,101.0380881,3.679838251,256.6205755
A-3537,pyridine-4-carboxylic acid,"InChI=1S/C6H5NO2/c8-6(9)5-1-3-7-4-2-5/h1-4H,(H,8,9)",TWBYWOBDOCUKOW-UHFFFAOYSA-N,OC(=O)c1ccncc1,-1.375967099,0,1,G1,123.111,0.7798,31.1963,9,2,1,3,1,46,1,0,0,1,50.19,51.97174907,2.981454614,207.5576621
A-3538,"1,4-dithiane-2,5-diol","InChI=1S/C4H8O2S2/c5-3-1-7-4(6)2-8-3/h3-6H,1-2H2",YUIOPHXTILULQC-UHFFFAOYSA-N,OC1CSC(O)CS1,-1.469038232,0,1,G1,152.24,0.1032,36.9296,8,4,2,4,0,48,0,1,1,1,40.46,56.66293377,2.192377158,60.4385619
A-3539,6-chlorohexan-2-one,"InChI=1S/C6H11ClO/c1-6(8)4-2-3-5-7/h2-5H2,1H3",CMDIDTNMHQUVPE-UHFFFAOYSA-N,CC(=O)CCCCCl,-1.415573876,0,1,G1,134.606,1.9845,35.252,8,1,0,2,4,48,0,0,0,0,17.07,55.02874993,2.822354554,70.92878689
A-3540,"4-(3-methyl-5-oxo-4,5-dihydro-1H-pyrazol-1-yl)benzenesulfonic acid","InChI=1S/C10H10N2O4S/c1-7-6-10(13)12(11-7)8-2-4-9(5-3-8)17(14,15)16/h2-5H,6H2,1H3,(H,14,15,16)",CWJQQASJVVAXKL-UHFFFAOYSA-N,CC1=NN(C(=O)C1)c2ccc(cc2)[S](O)(=O)=O,-1.692640297,0,1,G1,254.267,1.0459,61.4686,17,4,1,7,2,90,1,0,1,2,87.04,98.30079071,2.338886328,589.2368422
A-3542,toluenesulphonamide,"InChI=1S/C7H9NO2S/c1-6-4-2-3-5-7(6)11(8,9)10/h2-5H,1H3,(H2,8,9,10)",YCMLQMDWSXFTIF-UHFFFAOYSA-N,Cc1ccccc1[S](N)(=O)=O,-1.525986853,0.251725097,2,G3,171.221,0.64242,42.5522,11,2,1,4,1,60,1,0,0,1,60.16,65.89701182,3.372194811,356.4582525
A-3543,1-(6-methyl-2-oxohexahydropyrimidin-4-yl)urea,"InChI=1S/C6H12N4O2/c1-3-2-4(9-5(7)11)10-6(12)8-3/h3-4H,2H2,1H3,(H3,7,9,11)(H2,8,10,12)",CZAUMIGWDFREBR-UHFFFAOYSA-N,CC1CC(NC(N)=O)NC(=O)N1,-1.531423432,0,1,G1,172.188,-0.9278,42.2535,12,2,4,6,1,68,0,1,1,1,96.25,69.87065189,2.438276153,203.7247662
A-3544,"2-methylbenzene-1,4-diamine; sulfuric acid","InChI=1S/C7H10N2.H2O4S/c1-5-4-6(8)2-3-7(5)9;1-5(2,3)4/h2-4H,8-9H2,1H3;(H2,1,2,3,4)",KZTWOUOZKZQDMN-UHFFFAOYSA-N,Cc1cc(N)ccc1N.O[S](O)(=O)=O,-1.641347932,0,1,G1,220.25,0.50662,54.1812,14,4,4,7,0,80,1,0,0,1,126.64,82.11383142,2.92E-07,394.1508637
A-3547,3-(trifluoromethyl)aniline,"InChI=1S/C7H6F3N/c8-7(9,10)5-2-1-3-6(11)4-5/h1-4H,11H2",VIUDTWATMPPKEL-UHFFFAOYSA-N,Nc1cccc(c1)C(F)(F)F,-1.508195621,0.033163724,4,G5,161.126,2.2876,35.8564,11,1,1,4,0,60,1,0,0,1,26.02,61.63284214,3.059901692,254.1077533
A-3548,"4,4'-methylenebis(cyclohexylamine)","InChI=1S/C13H26N2/c14-12-5-1-10(2-6-12)9-11-3-7-13(15)8-4-11/h10-13H,1-9,14-15H2",DZIHTWJGPDVSGE-UHFFFAOYSA-N,NC1CCC(CC1)CC2CCC(N)CC2,-1.62400348,0.211547231,3,G5,210.365,2.4115,64.4838,15,2,2,2,2,88,0,2,2,2,52.04,93.78667549,1.681234855,156.9749744
A-3549,"N-(2,5-dimethoxyphenyl)acetamide","InChI=1S/C10H13NO3/c1-7(12)11-9-6-8(13-2)4-5-10(9)14-3/h4-6H,1-3H3,(H,11,12)",HOZRMSVNIKYCMB-UHFFFAOYSA-N,COc1ccc(OC)c(NC(C)=O)c1,-1.591549855,0,1,G1,195.218,1.6622,53.8497,14,3,1,4,3,76,1,0,0,1,47.56,82.82964632,3.013413545,336.1390376
A-3551,potassium 4-(propan-2-yl)benzene-1-sulfonate,"InChI=1S/C9H12O3S.K/c1-7(2)8-3-5-9(6-4-8)13(10,11)12;/h3-7H,1-2H3,(H,10,11,12);/q;+1/p-1",RVRONQZKSCNZRS-UHFFFAOYSA-M,[K+].CC(C)c1ccc(cc1)[S]([O-])(=O)=O,0.320887212,0,1,G1,238.349,-1.2819,48.4942,14,3,0,5,2,72,1,0,0,1,57.2,127.0774302,1.69E-06,381.0230232
A-3552,ammonium carbamate,"InChI=1S/CH3NO2.H3N.H2O/c2-1(3)4;;/h2H2,(H,3,4);1H3;1H2",SFWLALIEAXEULE-UHFFFAOYSA-N,[NH4+].O.NC([O-])=O,0.711593998,0,1,G1,96.086,-2.1601,19.182,6,2,2,5,0,40,0,0,0,0,134.15,34.65140137,-4.50E-08,31.77443751
A-3553,sodium 4-(propan-2-yl)benzene-1-sulfonate,"InChI=1S/C9H12O3S.Na/c1-7(2)8-3-5-9(6-4-8)13(10,11)12;/h3-7H,1-2H3,(H,10,11,12);/q;+1/p-1",QEKATQBVVAZOAY-UHFFFAOYSA-M,[Na+].CC(C)c1ccc(cc1)[S]([O-])(=O)=O,0.346022737,0,1,G1,222.241,-1.2819,48.4942,14,3,0,5,2,72,1,0,0,1,57.2,106.5682651,1.69E-06,381.0230232
A-3555,trimethyl-3-[(1-oxo-10-undecenyl)amino]propylammonium methyl sulphate,"InChI=1S/C17H34N2O.CH4O4S/c1-5-6-7-8-9-10-11-12-14-17(20)18-15-13-16-19(2,3)4;1-5-6(2,3)4/h5H,1,6-16H2,2-4H3;1H3,(H,2,3,4)",MQMUSWOUVRONBK-UHFFFAOYSA-N,CO[S]([O-])(=O)=O.C[N+](C)(C)CCCNC(=O)CCCCCCCCC=C,0.094063213,0,1,G1,394.578,2.5987,104.3653,26,5,1,8,14,156,0,0,0,0,95.53,159.8918696,0,458.6921361
A-3557,"disodium bicyclo[3.3.1]tetraboroxane-3,7-bis(olate)",InChI=1S/B4O7.2Na.10H2O/c5-1-9-3(7)11-4(8)10-2-6;;;;;;;;;;;;/h;;;10*1H2/q-2;2*+1;;;;;;;;;;,OJPFLODMGUZMKD-UHFFFAOYSA-N,O.O.O.O.O.O.O.O.O.O.[Na+].[Na+].[O-]B(OB=O)OB([O-])OB=O,-0.884641885,0,1,G1,381.371,-18.583,63.782,23,7,0,23,6,136,0,0,0,0,422.95,175.1920547,-7.58E-09,123.7617746
A-3558,2-aminopyridin-3-ol,"InChI=1S/C5H6N2O/c6-5-4(8)2-1-3-7-5/h1-3,8H,(H2,6,7)",BMTSZVZQNMNPCT-UHFFFAOYSA-N,Nc1ncccc1O,-0.346106152,0,1,G1,110.116,0.3694,30.3142,8,3,2,3,0,42,1,0,0,1,59.14,46.78517555,3.134861511,166.5384734
A-3560,1-ethenylazepan-2-one,"InChI=1S/C8H13NO/c1-2-9-7-5-3-4-6-8(9)10/h2H,1,3-7H2",JWYVGKFDLWWQJX-UHFFFAOYSA-N,C=CN1CCCCCC1=O,-0.450786076,0,1,G1,139.198,1.5325,40.378,10,1,0,2,1,56,0,1,1,1,20.31,61.51976741,2.50938713,142.1930176
A-3561,3-methyl-4-oxobut-2-en-1-yl acetate,"InChI=1S/C7H10O3/c1-6(5-8)3-4-10-7(2)9/h3,5H,4H2,1-2H3/b6-3+",LPDDKAJRWGPGSI-ZZXKWVIFSA-N,CC(=O)OC\C=C(/C)C=O,-0.460793982,0,1,G1,142.154,0.6947,36.454,10,3,0,3,3,56,0,0,0,0,43.37,59.67589011,3.523568834,158.2341545
A-3562,boric acid,InChI=1S/BH3O3/c2-1(3)4/h2-4H,KGBXLFKZBHKPEV-UHFFFAOYSA-N,OB(O)O,-0.099255215,0.053869892,3,G5,61.833,-2.0518,12.4104,4,3,3,4,0,24,0,0,0,0,60.69,23.68451728,2.323790008,8
A-3563,calcium hydrogen borate,InChI=1S/2BO3.3Ca/c2*2-1(3)4;;;/q2*-3;3*+2,VLCLHFYFMCKBRP-UHFFFAOYSA-N,[Ca++].[Ca++].[Ca++].[O-]B([O-])[O-].[O-]B([O-])[O-],-0.684341705,0.053869892,3,G5,237.852,-9.038,28.77,11,6,0,11,0,48,0,0,0,0,138.36,154.3478608,-1.71E-08,31.2988603
A-3564,hexapotassium dihydrogen borate hydrogen borate borate,InChI=1S/BH3O3.K/c2-1(3)4;/h2-4H;,AENYAMPVQFAKHY-UHFFFAOYSA-N,[K].OB(O)O,-0.312059473,0.053869892,3,G5,100.931,-2.4326,18.1644,5,3,3,5,0,25,0,0,0,0,60.69,72.60708198,0,11.60964047
A-3566,"2,2-bis(hydroxymethyl)butanoic acid","InChI=1S/C6H12O4/c1-2-6(3-7,4-8)5(9)10/h7-8H,2-4H2,1H3,(H,9,10)",JVYDLYGCSIHCMR-UHFFFAOYSA-N,CCC(CO)(CO)C(O)=O,0.516803854,0,1,G1,148.158,-0.548,34.5314,10,3,3,4,4,60,0,0,0,0,77.76,59.10818496,4.305619426,108.6515613
A-3567,lead(2+) ion dinitrate,InChI=1S/2NO3.Pb/c2*2-1(3)4;/q2*-1;+2,RLJMLMKIBZAXJO-UHFFFAOYSA-N,[Pb++].[O-][N+]([O-])=O.[O-][N+]([O-])=O,0.166535451,0,1,G1,331.208,-0.859,26.4768,9,6,0,9,0,50,0,0,0,0,132.4,68.46518759,-7.20E-08,69.05865003
A-3569,trisodium 2-({2-[bis(carboxylatomethyl)amino]ethyl}(2-hydroxyethyl)amino)acetate,"InChI=1S/C10H18N2O7.3Na/c13-4-3-11(5-8(14)15)1-2-12(6-9(16)17)7-10(18)19;;;/h13H,1-7H2,(H,14,15)(H,16,17)(H,18,19);;;/q;3*+1/p-3",WHNXAQZPEBNFBC-UHFFFAOYSA-K,[Na+].[Na+].[Na+].OCCN(CCN(CC([O-])=O)CC([O-])=O)CC([O-])=O,0.144421539,0.008864383,2,G3,344.207,-15.1556,54.9868,22,9,1,12,11,110,0,0,0,0,147.1,194.4450976,-5.40E-07,317.6420139
A-3577,"disodium 5-({4-[bis(2-hydroxyethyl)amino]-6-(phenylamino)-1,3,5-triazin-2-yl}amino)-2-{2-[4-({4-[bis(2-hydroxyethyl)amino]-6-(phenylamino)-1,3,5-triazin-2-yl}amino)-2-sulfonatophenyl]ethenyl}benzene-1-sulfonate","InChI=1S/C40H44N12O10S2.2Na/c53-21-17-51(18-22-54)39-47-35(41-29-7-3-1-4-8-29)45-37(49-39)43-31-15-13-27(33(25-31)63(57,58)59)11-12-28-14-16-32(26-34(28)64(60,61)62)44-38-46-36(42-30-9-5-2-6-10-30)48-40(50-38)52(19-23-55)20-24-56;;/h1-16,25-26,53-56H,17-24H2,(H,57,58,59)(H,60,61,62)(H2,41,43,45,47,49)(H2,42,44,46,48,50);;/q;2*+1/p-2/b12-11+;;",YJHDFAAFYNRKQE-YHPRVSEPSA-L,[Na+].[Na+].OCCN(CCO)c1nc(Nc2ccccc2)nc(Nc3ccc(\C=C\c4ccc(Nc5nc(Nc6ccccc6)nc(n5)N(CCO)CCO)cc4[S]([O-])(=O)=O)c(c3)[S]([O-])(=O)=O)n1,-1.29966008,0,1,G1,960.964,-3.4004,236.1764,66,22,8,26,22,336,6,0,0,6,327.26,423.9747025,4.76E-06,2588.119194
A-3578,zinc bis(2-hydroxypropanoate),"InChI=1S/2C3H6O3.Zn/c2*1-2(4)3(5)6;/h2*2,4H,1H3,(H,5,6);/q;;+2/p-2",CANRESZKMUPMAE-UHFFFAOYSA-L,[Zn++].CC(O)C([O-])=O.CC(O)C([O-])=O,-0.70350543,0.230147285,2,G3,243.53,-3.7683,33.3756,13,6,2,7,2,72,0,0,0,0,120.72,87.9531,-1.43E-07,137.2034664
A-3582,3-methylbutanoic acid,"InChI=1S/C5H10O2/c1-4(2)3-5(6)7/h4H,3H2,1-2H3,(H,6,7)",GWYFCOCPABKNJV-UHFFFAOYSA-N,CC(C)CC(O)=O,-0.327924852,0.035837574,2,G3,102.133,1.1171,27.0908,7,1,1,2,2,42,0,0,0,0,37.3,43.15477534,3.126006652,66.48040588
A-3594,"trilithium 2-hydroxypropane-1,2,3-tricarboxylate tetrahydrate","InChI=1S/C6H8O7.3Li.4H2O/c7-3(8)1-6(13,5(11)12)2-4(9)10;;;;;;;/h13H,1-2H2,(H,7,8)(H,9,10)(H,11,12);;;;4*1H2/q;3*+1;;;;/p-3",HXGWMCJZLNWEBC-UHFFFAOYSA-K,[Li+].[Li+].[Li+].O.O.O.O.OC(CC([O-])=O)(CC([O-])=O)C([O-])=O,0.221876471,0,1,G1,281.982,-17.5394,43.66,20,7,1,14,5,106,0,0,0,0,266.62,149.0411732,-3.43E-08,242.5430169
A-3596,(2S)-3-methyl-2-[pentanoyl-[[4-[2-(2H-tetrazol-5-yl)phenyl]phenyl]methyl]amino]butanoic acid,"InChI=1S/C24H29N5O3/c1-4-5-10-21(30)29(22(16(2)3)24(31)32)15-17-11-13-18(14-12-17)19-8-6-7-9-20(19)23-25-27-28-26-23/h6-9,11-14,16,22H,4-5,10,15H2,1-3H3,(H,31,32)(H,25,26,27,28)/t22-/m0/s1",ACWBQPMHZXGDFX-QFIPXVFZSA-N,CCCCC(=O)N(Cc1ccc(cc1)c2ccccc2c3n[nH]nn3)[C@@H](C(C)C)C(O)=O,-2.735926094,0,1,G1,435.528,4.1617,121.3865,32,5,2,8,10,168,3,0,0,3,112.07,187.2105315,1.870560087,1032.052952
A-3599,2-[(2-hydroxyethyl)(phenyl)amino]ethan-1-ol,"InChI=1S/C10H15NO2/c12-8-6-11(7-9-13)10-4-2-1-3-5-10/h1-5,12-13H,6-9H2",OJPDDQSCZGTACX-UHFFFAOYSA-N,OCCN(CCO)c1ccccc1,-0.583380931,0.076073742,3,G5,181.235,0.4776,52.8266,13,3,2,3,5,72,1,0,0,1,43.7,78.23947275,2.638916623,219.6261719
A-3601,ethyl methyl carbonate,"InChI=1S/C4H8O3/c1-3-7-4(5)6-2/h3H2,1-2H3",JBTWLSYIZRCDFO-UHFFFAOYSA-N,CCOC(=O)OC,-0.344450681,0,1,G1,104.105,0.7893,24.031,7,3,0,3,1,42,0,0,0,0,35.53,42.22268993,3.002590529,59.95524698
A-3602,magnesium(2+) ion dichloride,InChI=1S/2ClH.Mg/h2*1H;/q;;+2/p-2,TWRXJAOTZQYOKJ-UHFFFAOYSA-L,[Mg++].[Cl-].[Cl-],0.692207827,0,1,G1,95.211,-6.3728,5.754,3,0,0,3,0,16,0,0,0,0,0,47.94456007,0,2.754887502
A-3603,"hexane-1,6-diamine; hexanedioic acid","InChI=1S/C6H16N2.C6H10O4/c7-5-3-1-2-4-6-8;7-5(8)3-1-2-4-6(9)10/h1-8H2;1-4H2,(H,7,8)(H,9,10)",UFFRSDWQMJYQNE-UHFFFAOYSA-N,NCCCCCCN.OC(=O)CCCCC(O)=O,0.251364785,0,1,G1,262.35,1.1802,70.3164,18,4,4,6,10,108,0,0,0,0,126.64,108.3507385,0,188.2540912
A-3605,vanadium oxide sulphate,"InChI=1S/H2O4S.O.V/c1-5(2,3)4;;/h(H2,1,2,3,4);;/q;;+2/p-2",UUUGYDOQQLOJQA-UHFFFAOYSA-L,[O-][S]([O-])(=O)=O.O=[V++],0.457118619,0,1,G1,163.004,-1.4593,11.1611,7,5,0,7,0,41,0,0,0,0,97.33,49.50621337,0,102.041844
A-3606,lithium(1+) ion perchlorate,"InChI=1S/ClHO4.Li.3H2O/c2-1(3,4)5;;;;/h(H,2,3,4,5);;3*1H2/q;+1;;;/p-1",JAWYRNYHJJDXHX-UHFFFAOYSA-M,[Li+].O.O.O.[O-][Cl](=O)(=O)=O,0.461218862,0,1,G1,160.435,-10.2261,10.8414,9,4,0,9,0,56,0,0,0,0,186.74,64.751728,-1.33E-08,24.38761556
A-3608,potassium nonafluorobutane-1-sulfonate,"InChI=1S/C4HF9O3S.K/c5-1(6,3(9,10)11)2(7,8)4(12,13)17(14,15)16;/h(H,14,15,16);/q;+1/p-1",LVTHXRLARFLXNR-UHFFFAOYSA-M,[K+].[O-][S](=O)(=O)C(F)(F)C(F)(F)C(F)(F)C(F)(F)F,-0.864516218,0.031745046,3,G5,338.188,-1.0387,30.5932,18,3,0,14,3,104,0,0,0,0,57.2,135.8750967,0,398.5260356
A-3609,"2-[(E)-2-{4-[ethyl(2-hydroxyethyl)amino]phenyl}diazen-1-yl]-6-methoxy-3-methyl-1,3-benzothiazol-3-ium chloride","InChI=1S/C19H23N4O2S.ClH/c1-4-23(11-12-24)15-7-5-14(6-8-15)20-21-19-22(2)17-10-9-16(25-3)13-18(17)26-19;/h5-10,13,24H,4,11-12H2,1-3H3;1H/q+1;/p-1",XZLJSWJFZGBAQT-UHFFFAOYSA-M,[Cl-].CCN(CCO)c1ccc(cc1)N=Nc2sc3cc(OC)ccc3[n+]2C,-0.946771482,0,1,G1,406.939,0.9724,105.1438,27,6,1,8,7,144,3,0,0,3,61.3,168.697281,2.61E-06,911.963692
A-3610,"2-[(E)-2-{4-[ethyl(2-hydroxyethyl)amino]phenyl}diazen-1-yl]-6-methoxy-3-methyl-1,3-benzothiazol-3-ium methyl sulfate","InChI=1S/C19H23N4O2S.CH4O4S/c1-4-23(11-12-24)15-7-5-14(6-8-15)20-21-19-22(2)17-10-9-16(25-3)13-18(17)26-19;1-5-6(2,3)4/h5-10,13,24H,4,11-12H2,1-3H3;1H3,(H,2,3,4)/q+1;/p-1",MHOFGBJTSNWTDT-UHFFFAOYSA-M,CCN(CCO)c1ccc(cc1)N=Nc2sc3cc(OC)ccc3[n+]2C.CO[S]([O-])(=O)=O,-1.020815087,0,1,G1,482.584,3.0614,121.85,32,10,1,12,8,174,3,0,0,3,127.73,190.8661462,5.34E-07,1146.856409
A-3611,butyl 2-hydroxyacetate,"InChI=1S/C6H12O3/c1-2-3-4-9-6(8)5-7/h7H,2-5H2,1H3",VFGRALUHHHDIQI-UHFFFAOYSA-N,CCCCOC(=O)CO,-0.458338912,0,1,G1,132.159,0.322,32.9528,9,3,1,3,4,54,0,0,0,0,46.53,54.63326268,2.973062408,80.37215812
A-3612,methyl 2-chloroacetate,"InChI=1S/C3H5ClO2/c1-6-3(5)2-4/h2H2,1H3",QABLOFMHHSOFRJ-UHFFFAOYSA-N,COC(=O)CCl,-0.372767961,0,1,G1,108.524,0.3982,22.736,6,2,0,3,1,36,0,0,0,0,26.3,41.04746881,2.988160882,46.7548875
A-3613,cadmium dichloride,InChI=1S/Cd.2ClH/h;2*1H/q+2;;/p-2,YKYOUMDCQGMQQO-UHFFFAOYSA-L,[Cl-].[Cl-].[Cd++],0.39671109,0,1,G1,183.318,-5.9945,0,3,0,0,3,0,16,0,0,0,0,0,51.95721584,0,2.754887502
A-3614,sodium 2-bromoethane-1-sulfonate,"InChI=1S/C2H5BrO3S.Na/c3-1-2-7(4,5)6;/h1-2H2,(H,4,5,6);/q;+1/p-1",HNFOAHXBHLWKNF-UHFFFAOYSA-M,[Na+].[O-][S](=O)(=O)CCBr,0.332748699,0,1,G1,211.012,-3.0695,28.3582,8,3,0,6,2,44,0,0,0,0,57.2,79.01377638,0,130.2188491
A-3615,"benzene-1,2-diol","InChI=1S/C6H6O2/c7-5-3-1-2-4-6(5)8/h1-4,7-8H",YCIMNLLNPGFGHC-UHFFFAOYSA-N,Oc1ccccc1O,0.612341891,0.056118153,2,G3,110.112,1.0978,29.7716,8,2,2,2,0,42,1,0,0,1,40.46,47.01987062,3.134861511,162.6383389
A-3616,"N,N-diethylhydroxylamine","InChI=1S/C4H11NO/c1-3-5(6)4-2/h6H,3-4H2,1-2H3",FVCOIAYSJZGECG-UHFFFAOYSA-N,CCN(O)CC,0.70363191,0.05587066,2,G3,89.138,0.7174,24.7075,6,2,1,2,2,38,0,0,0,0,23.47,38.34218329,2.754184786,26.72905595
A-3617,bis(amino(imino)methanaminium) carbonate,"InChI=1S/2CH5N3.CH2O3/c3*2-1(3)4/h2*(H5,2,3,4);(H2,2,3,4)",STIAPHVBRDNOAJ-UHFFFAOYSA-N,NC(N)=N.NC(N)=N.OC(O)=O,0.397534856,0,1,G1,180.168,-2.10046,42.8566,12,3,8,9,0,72,0,0,0,0,209.31,67.96105195,-1.01E-07,115.587975
A-3618,lithium(1+) ion acetate,"InChI=1S/C2H4O2.Li/c1-2(3)4;/h1H3,(H,3,4);/q;+1/p-1",XIXADJRWDQXREU-UHFFFAOYSA-M,[Li+].CC([O-])=O,0.833767293,0.124852105,5,G5,65.985,-4.2398,10.681,5,2,0,3,0,24,0,0,0,0,40.13,42.35751452,0,30.62919048
A-3621,4-{2-[(2-methylprop-2-enoyl)oxy]ethoxy}-4-oxobutanoic acid,"InChI=1S/C10H14O6/c1-7(2)10(14)16-6-5-15-9(13)4-3-8(11)12/h1,3-6H2,2H3,(H,11,12)",ZEWLHMQYEZXSBH-UHFFFAOYSA-N,CC(=C)C(=O)OCCOC(=O)CCC(O)=O,-0.706708916,0,1,G1,230.216,0.5137,53.6018,16,5,1,6,7,90,0,0,0,0,89.9,92.84001754,3.515905964,293.6843798
A-3622,"(4S,4aS,5aS,6S,12aR)-7-chloro-4-(dimethylamino)-1,6,10,11,12a-pentahydroxy-3,12-dioxo-3,4,4a,5,5a,6,12,12a-octahydrotetracene-2-carboxamide hydrochloride","InChI=1S/C21H21ClN2O8.ClH/c1-24(2)14-7-5-6-10(16(27)12-9(25)4-3-8(22)11(12)15(6)26)18(29)21(7,32)19(30)13(17(14)28)20(23)31;/h3-4,6-7,14-15,25-27,31-32H,5,23H2,1-2H3;1H/b20-13-;/t6-,7-,14-,15-,21-;/m0./s1",POPIIQNWBBGGRT-YHBXTMLJSA-N,[Cl-].CN(C)[C@H]1[C@@H]2C[C@@H]3[C@H](O)c4c(Cl)ccc(O)c4C(=C3C(=O)[C@]2(O)C(=O)\C(=C(N)/O)C1=O)O.[H+],-1.046901651,0,1,G1,501.319,-2.7752,111.6224,33,10,6,12,1,178,1,2,3,4,181.62,200.0054526,2.04E-06,1163.672654