ID,Name,InChI,InChIKey,SMILES,Solubility,SD,Ocurrences,Group,MolWt,MolLogP,MolMR,HeavyAtomCount,NumHAcceptors,NumHDonors,NumHeteroatoms,NumRotatableBonds,NumValenceElectrons,NumAromaticRings,NumSaturatedRings,NumAliphaticRings,RingCount,TPSA,LabuteASA,BalabanJ,BertzCT
A-4570,trimethoxymethane,"InChI=1S/C4H10O3/c1-5-4(6-2)7-3/h4H,1-3H3",PYOKUURKVVELLB-UHFFFAOYSA-N,COC(OC)OC,-1.025801334,0,1,G1,106.121,0.2092,24.815,7,3,0,3,3,44,0,0,0,0,27.69,43.17471306,2.992302883,28.40637196
A-4571,"3,3,3-tribromo-2,2-dimethylpropan-1-ol","InChI=1S/C5H9Br3O/c6-1-5(2-7,3-8)4-9/h9H,1-4H2",QEJPOEGPNIVDMK-UHFFFAOYSA-N,OCC(CBr)(CBr)CBr,-2.226109519,0,1,G1,324.838,2.1498,50.9008,9,1,1,4,4,56,0,0,0,0,20.23,80.59589605,3.824684203,55.09358393
A-4572,"2-amino-4,5-dichlorobenzene-1-sulfonic acid","InChI=1S/C6H5Cl2NO3S/c7-3-1-5(9)6(2-4(3)8)13(10,11)12/h1-2H,9H2,(H,10,11,12)",AKLDPNVZTZIVFA-UHFFFAOYSA-N,Nc1cc(Cl)c(Cl)cc1[S](O)(=O)=O,-2.105210692,0.141583548,3,G5,242.083,1.8223,50.689,13,3,2,7,1,72,1,0,0,1,80.39,85.00646228,3.501552734,443.4377407
A-4576,2-phenyl-1H-imidazole,"InChI=1S/C9H8N2/c1-2-4-8(5-3-1)9-10-6-7-11-9/h1-7H,(H,10,11)",ZCUJYXPAKHMBAZ-UHFFFAOYSA-N,[nH]1ccnc1c2ccccc2,-1.88938304,0,1,G1,144.177,2.0767,44.0237,11,1,1,2,1,54,2,0,0,2,28.68,64.91730573,2.464776979,310.5534952
A-4577,strontium tartarate,"InChI=1S/C4H6O6.Sr/c5-1(3(7)8)2(6)4(9)10;/h1-2,5-6H,(H,7,8)(H,9,10);",YRUOECKPPZQJHI-UHFFFAOYSA-N,[Sr].OC(C(O)C(O)=O)C(O)=O,-2.1065272,0,1,G1,237.706,-2.5034,33.0392,11,4,4,7,3,60,0,0,0,0,115.06,98.72205236,0,138.6612729
A-4579,2-[(2-nitrophenyl)amino]ethan-1-ol,"InChI=1S/C8H10N2O3/c11-6-5-9-7-3-1-2-4-8(7)10(12)13/h1-4,9,11H,5-6H2",LFOUYKNCQNVIGI-UHFFFAOYSA-N,OCCNc1ccccc1[N+]([O-])=O,-1.993326586,0,1,G1,182.179,0.999,48.6719,13,4,2,5,4,70,1,0,0,1,75.4,75.15835901,2.844925641,301.1955428
A-4580,"5-methyl-1,2-oxazole-4-carboxylate","InChI=1S/C5H5NO3/c1-3-4(5(7)8)2-6-9-3/h2H,1H3,(H,7,8)/p-1",VQBXUKGMJCPBMF-UHFFFAOYSA-M,Cc1oncc1C([O-])=O,-1.05536111,0,1,G1,126.091,-0.65348,25.5705,9,4,0,4,1,48,1,0,0,1,66.16,51.08237675,3.07666344,227.8619086
A-4582,"2,5,6-trimethylcyclohex-2-en-1-one","InChI=1S/C9H14O/c1-6-4-5-7(2)9(10)8(6)3/h5-6,8H,4H2,1-3H3",QAQCUBLNHBKTRM-UHFFFAOYSA-N,CC1CC=C(C)C(=O)C1C,-1.885266962,0,1,G1,138.21,2.1777,41.709,10,1,0,1,0,56,0,0,1,1,17.07,62.12487586,2.807101863,179.1672877
A-4584,"2-ethylhexanoic acid, manganese salt","InChI=1S/C8H16O2.Mn/c1-3-5-6-7(4-2)8(9)10;/h7H,3-6H2,1-2H3,(H,9,10);/q;+2",ODUSECXQXODQGI-UHFFFAOYSA-N,[Mn++].CCCCC(CC)C(O)=O,-2.043912167,0.395025237,2,G3,199.152,2.2849,40.9418,11,1,1,3,5,65,0,0,0,0,37.3,78.84522195,0,104.2651805
A-4587,"3-[(2-ethylhexyl)oxy]propane-1,2-diol","InChI=1S/C11H24O3/c1-3-5-6-10(4-2)8-14-9-11(13)7-12/h10-13H,3-9H2,1-2H3",NCZPCONIKBICGS-UHFFFAOYSA-N,CCCCC(CC)COCC(O)CO,-2.055017119,0,1,G1,204.31,1.5726,57.2176,14,3,2,3,9,86,0,0,0,0,49.69,87.09068491,3.415454834,117.1002714
A-4588,3-amino-4-chlorobenzamide,"InChI=1S/C7H7ClN2O/c8-5-2-1-4(7(10)11)3-6(5)9/h1-3H,9H2,(H2,10,11)",QHMDKGRWJVOUFU-UHFFFAOYSA-N,NC(=O)c1ccc(Cl)c(N)c1,-1.976703976,0,1,G1,170.599,1.0211,44.3823,11,2,2,4,1,58,1,0,0,1,69.11,68.94091495,3.151549668,298.4920898
A-4589,"N-(4-amino-3-methoxy-9,10-dioxo-9,10-dihydroanthracen-1-yl)benzenesulfonamide","InChI=1S/C21H16N2O5S/c1-28-16-11-15(23-29(26,27)12-7-3-2-4-8-12)17-18(19(16)22)21(25)14-10-6-5-9-13(14)20(17)24/h2-11,23H,22H2,1H3",ZUWHJJGOYZUNDW-UHFFFAOYSA-N,COc1cc(N[S](=O)(=O)c2ccccc2)c3C(=O)c4ccccc4C(=O)c3c1N,-2.355850446,0,1,G1,408.435,2.8536,107.9639,29,6,2,8,4,146,3,0,1,4,115.56,166.7217049,1.951846521,1267.728998
A-4591,"3-(oxiran-2-ylmethoxy)-N,N-bis(oxiran-2-ylmethyl)aniline","InChI=1S/C15H19NO4/c1-2-11(4-12(3-1)17-9-15-10-20-15)16(5-13-7-18-13)6-14-8-19-14/h1-4,13-15H,5-10H2",VAGOJLCWTUPBKD-UHFFFAOYSA-N,C1OC1COc2cccc(c2)N(CC3CO3)CC4CO4,-2.192561189,0,1,G1,277.32,1.0682,73.37,20,5,0,5,8,108,1,3,3,4,50.06,117.9124033,1.427565434,454.6962471
A-4592,benzene,InChI=1S/C6H6/c1-2-4-6-5-3-1/h1-6H,UHOVQNZJYSORNB-UHFFFAOYSA-N,c1ccccc1,-1.642308875,0.011868923,2,G3,78.114,1.6866,26.442,6,0,0,0,0,30,1,0,0,1,0,37.43140312,3,71.96100506
A-4593,"2,2,6,6-tetramethyl-N-{6-[(2,2,6,6-tetramethylpiperidin-4-yl)amino]hexyl}piperidin-4-amine","InChI=1S/C24H50N4/c1-21(2)15-19(16-22(3,4)27-21)25-13-11-9-10-12-14-26-20-17-23(5,6)28-24(7,8)18-20/h19-20,25-28H,9-18H2,1-8H3",UKJARPDLRWBRAX-UHFFFAOYSA-N,CC1(C)CC(CC(C)(C)N1)NCCCCCCNC2CC(C)(C)NC(C)(C)C2,-2.350745656,0,1,G1,394.692,4.3444,123.1048,28,4,4,4,9,166,0,2,2,2,48.12,175.3207061,1.53150332,404.9968202
A-4597,"2,4,7,9-tetramethyldec-5-yne-4,7-diol","InChI=1S/C14H26O2/c1-11(2)9-13(5,15)7-8-14(6,16)10-12(3)4/h11-12,15-16H,9-10H2,1-6H3",LXOFYPKXCSULTL-UHFFFAOYSA-N,CC(C)CC(C)(O)C#CC(C)(O)CC(C)C,-2.124350764,0,1,G1,226.36,2.584,67.9336,16,2,2,2,4,94,0,0,0,0,40.46,100.0711914,4.571752872,238.1952663
A-4598,butyl prop-2-enoate,"InChI=1S/C7H12O2/c1-3-5-6-9-7(8)4-2/h4H,2-3,5-6H2,1H3",CQEYYJKEWSMYFG-UHFFFAOYSA-N,CCCCOC(=O)C=C,-1.877340851,0.07826491,4,G5,128.171,1.5157,36.064,9,2,0,2,4,52,0,0,0,0,26.3,55.51436801,3.065503379,97.08927323
A-4600,4-(butoxymethyl)-2-methoxyphenol,"InChI=1S/C12H18O3/c1-3-4-7-15-9-10-5-6-11(13)12(8-10)14-2/h5-6,8,13H,3-4,7,9H2,1-2H3",VLDFMKOUUQYFGF-UHFFFAOYSA-N,CCCCOCc1ccc(O)c(OC)c1,-2.094896806,0.012483163,2,G3,210.273,2.7175,59.2228,15,3,1,3,6,84,1,0,0,1,38.69,90.64238002,2.471357778,296.9187478
A-4601,"2,5-dichloroanilinium chloride","InChI=1S/C6H5Cl2N.ClH/c7-4-1-2-5(8)6(9)3-4;/h1-3H,9H2;1H",ZALVJCYWUBQENP-UHFFFAOYSA-N,[H+].[Cl-].Nc1cc(Cl)ccc1Cl,-2.07500028,0,1,G1,198.48,-0.3079,41.9864,10,1,1,4,0,56,1,0,0,1,26.02,77.01571789,0,229.0674223
A-4602,disodium (2R)-2-(dodecanoyloxy)propane-1-sulfonate (2S)-2-(dodecanoyloxy)propane-1-sulfonate,"InChI=1S/2C15H30O5S.2Na/c2*1-3-4-5-6-7-8-9-10-11-12-15(16)20-14(2)13-21(17,18)19;;/h2*14H,3-13H2,1-2H3,(H,17,18,19);;/q;;2*+1/p-2/t2*14-;;/m10../s1",OIDZHGLUIRZPNM-XUZVGNKESA-L,[Na+].[Na+].CCCCCCCCCCCC(=O)O[C@@H](C)C[S]([O-])(=O)=O.CCCCCCCCCCCC(=O)O[C@H](C)C[S]([O-])(=O)=O,-2.618046836,0,1,G1,688.898,0.7764,163.9244,44,10,0,14,26,252,0,0,0,0,167,312.9626094,-3.48E-07,812.2581926
A-4604,"2-(2-amino-1,3-thiazol-4-yl)acetic acid","InChI=1S/C5H6N2O2S/c6-5-7-3(2-10-5)1-4(8)9/h2H,1H2,(H2,6,7)(H,8,9)",DYCLHZPOADTVKK-UHFFFAOYSA-N,Nc1scc(CC(O)=O)n1,-1.981673118,0,1,G1,158.182,0.3524,37.8662,10,4,2,5,2,54,1,0,0,1,76.21,61.31694515,2.66881185,245.5509192
A-4605,"1'-(phenylmethyl)-[1,4'-bipiperidine]-4'-carbonitrile","InChI=1S/C18H25N3/c19-16-18(21-11-5-2-6-12-21)9-13-20(14-10-18)15-17-7-3-1-4-8-17/h1,3-4,7-8H,2,5-6,9-15H2/p+2",XXZATAXHOSMHKY-UHFFFAOYSA-P,N#CC1(CC[NH+](CC1)Cc2ccccc2)[NH+]3CCCCC3,-2.245992211,0,1,G1,285.435,0.19648,82.9684,21,1,2,3,3,112,1,2,2,3,32.67,127.7112932,1.590212108,476.9349447
A-4606,3-(diethylamino)phenol,"InChI=1S/C10H15NO/c1-3-11(4-2)9-6-5-7-10(12)8-9/h5-8,12H,3-4H2,1-2H3",WAVOOWVINKGEHS-UHFFFAOYSA-N,CCN(CC)c1cccc(O)c1,-2.011278797,0.015367308,2,G3,165.236,2.2384,51.6678,12,2,1,2,3,66,1,0,0,1,23.47,73.445239,2.8535996,243.3488247
A-4607,"2,3-bis(nitrooxy)propyl nitrate","InChI=1S/C3H5N3O9/c7-4(8)13-1-3(15-6(11)12)2-14-5(9)10/h3H,1-2H2",SNIOPGDIGTZGOP-UHFFFAOYSA-N,[O-][N+](=O)OCC(CO[N+]([O-])=O)O[N+]([O-])=O,-2.152068465,0.042149818,4,G5,227.085,-1.0201,37.7602,15,9,0,12,8,86,0,0,0,0,157.11,80.63081361,3.992205547,234.9871243
A-4610,methyl 2-[(1E)-cyclopentylidene]acetate,"InChI=1S/C8H12O2/c1-10-8(9)6-7-4-2-3-5-7/h6H,2-5H2,1H3",ZDBCSZOFHPULAS-UHFFFAOYSA-N,COC(=O)C=C1CCCC1,-1.942572269,0.015466857,2,G3,140.182,1.6598,38.567,10,2,0,2,1,56,0,1,1,1,26.3,60.87347897,2.445184761,150.6405265
A-4613,diphenyl methylphosphonate,"InChI=1S/C13H13O3P/c1-17(14,15-12-8-4-2-5-9-12)16-13-10-6-3-7-11-13/h2-11H,1H3",HPUPGAFDTWIMBR-UHFFFAOYSA-N,C[P](=O)(Oc1ccccc1)Oc2ccccc2,-2.201708674,0,1,G1,248.218,3.9673,67.6705,17,3,0,4,4,88,2,0,0,2,35.53,100.5434703,2.074980323,465.2024886
A-4616,fluorobenzene,InChI=1S/C6H5F/c7-6-4-2-1-3-5-6/h1-5H,PYLWMHQQBFSUBP-UHFFFAOYSA-N,Fc1ccccc1,-1.792409766,0,1,G1,96.104,1.8257,26.4,7,0,0,1,0,36,1,0,0,1,0,41.59693852,3.02146531,134.1073697
A-4617,sodium heptadecyl sulfate,"InChI=1S/C17H36O4S.Na/c1-2-3-4-5-6-7-8-9-10-11-12-13-14-15-16-17-21-22(18,19)20;/h2-17H2,1H3,(H,18,19,20);/q;+1/p-1",HHURSJAUVYNJBT-UHFFFAOYSA-M,[Na+].CCCCCCCCCCCCCCCCCO[S]([O-])(=O)=O,-2.366992667,0,1,G1,358.52,2.3386,90.5782,23,4,0,6,17,134,0,0,0,0,66.43,165.9429096,0,320.5550567
A-4620,"2,2-difluoroethanamine","InChI=1S/C2H5F2N/c3-2(4)1-5/h2H,1,5H2",OVRWUZYZECPJOB-UHFFFAOYSA-N,NCC(F)F,0.522530377,0.006340516,2,G3,81.065,0.2102,15.0584,5,1,1,3,1,32,0,0,0,0,26.02,28.77515465,2.539538861,21.60964047
A-4623,"[(2R,3R,4S,5R,6R)-3,4,5,6-tetrakis(acetyloxy)oxan-2-yl]methyl acetate","InChI=1S/C16H22O11/c1-7(17)22-6-12-13(23-8(2)18)14(24-9(3)19)15(25-10(4)20)16(27-12)26-11(5)21/h12-16H,6H2,1-5H3",LPTITAGPBXDDGR-UHFFFAOYSA-N,CC(=O)OCC1OC(OC(C)=O)C(OC(C)=O)C(OC(C)=O)C1OC(C)=O,-2.415352911,0.117323544,2,G3,390.341,-0.3674,83.722,27,11,0,11,6,152,0,1,1,1,140.73,154.6964335,3.285482322,599.1739454
A-4624,"2,2-dimethyl-3-phenylpropan-1-ol","InChI=1S/C11H16O/c1-11(2,9-12)8-10-6-4-3-5-7-10/h3-7,12H,8-9H2,1-2H3",VNGAHMPMLRTSLF-UHFFFAOYSA-N,CC(C)(CO)Cc1ccccc1,-2.042313822,0,1,G1,164.248,2.2476,51.0128,12,1,1,1,3,66,1,0,0,1,20.23,74.05034744,2.641246256,226.0192453
A-4625,2-phenyloxirane,"InChI=1S/C8H8O/c1-2-4-7(5-3-1)8-6-9-8/h1-5,8H,6H2",AWMVMTVKBNGEAK-UHFFFAOYSA-N,C1OC1c2ccccc2,-1.906541121,0.151967493,2,G3,120.151,1.7579,35.135,9,1,0,1,1,46,1,1,1,2,12.53,54.26900142,2.286071308,188.9824258
A-4627,"tert-butyl 2,2-dimethylpropaneperoxoate","InChI=1S/C9H18O3/c1-8(2,3)7(10)11-12-9(4,5)6/h1-6H3",OPQYOFWUFGEMRZ-UHFFFAOYSA-N,CC(C)(C)OOC(=O)C(C)(C)C,-2.067961594,0,1,G1,174.24,2.3058,46.385,12,3,0,3,1,72,0,0,0,0,35.53,73.97669582,3.895440563,159.5929113
A-4628,tetraethyl silicate,"InChI=1S/C8H20O4Si/c1-5-9-13(10-6-2,11-7-3)12-8-4/h5-8H2,1-4H3",BOTDANWDWHJENH-UHFFFAOYSA-N,CCO[Si](OCC)(OCC)OCC,-2.145565545,0,1,G1,208.33,1.568,52.258,13,4,0,5,8,80,0,0,0,0,36.92,81.62232811,4.185611645,91.20187915
A-4629,3-methyl-2-[(2E)-pent-2-en-1-yl]cyclopent-2-en-1-one,"InChI=1S/C11H16O/c1-3-4-5-6-10-9(2)7-8-11(10)12/h4-5H,3,6-8H2,1-2H3/b5-4-",XMLSXPIVAXONDL-PLNGDYQASA-N,CC\C=C/CC1=C(C)CCC1=O,-2.045238375,0,1,G1,164.248,3.0221,50.989,12,1,0,1,3,66,0,0,1,1,17.07,74.16515705,2.554213747,233.3886675
A-4630,2-chlorobenzaldehyde,InChI=1S/C7H5ClO/c8-7-4-2-1-3-6(7)5-9/h1-5H,FPYUJUBAXZAQNL-UHFFFAOYSA-N,Clc1ccccc1C=O,-1.980572221,0.043977585,2,G3,140.569,2.1525,36.8395,9,1,0,2,1,46,1,0,0,1,17.07,58.26113356,3.14797913,219.9110651
A-4631,2-(butan-2-yl)phenol,"InChI=1S/C10H14O/c1-3-8(2)9-6-4-5-7-10(9)11/h4-8,11H,3H2,1-2H3",NGFPWHGISWUQOI-UHFFFAOYSA-N,CCC(C)c1ccccc1O,-2.012377793,0,1,G1,150.221,2.9057,46.8128,11,1,1,1,2,60,1,0,0,1,20.23,67.68540533,2.933852306,230.0693159
A-4634,"2,2'-(octylimino)diethanol","InChI=1S/C12H27NO2/c1-2-3-4-5-6-7-8-13(9-11-14)10-12-15/h14-15H,2-12H2,1H3",QZQNMMLYACBCMJ-UHFFFAOYSA-N,CCCCCCCCN(CCO)CCO,-2.191037603,0,1,G1,217.353,1.6335,63.9876,15,3,2,3,11,92,0,0,0,0,43.7,94.10191546,3.278271459,114.1897467
A-4639,5-nitroisophthalic acid,"InChI=1S/C8H5NO6/c10-7(11)4-1-5(8(12)13)3-6(2-4)9(14)15/h1-3H,(H,10,11)(H,12,13)",NBDAHKQJXVLAID-UHFFFAOYSA-N,OC(=O)c1cc(cc(c1)[N+]([O-])=O)C(O)=O,-2.178419855,0.099209928,2,G3,211.129,0.9912,47.015,15,4,2,7,3,78,1,0,0,1,117.74,82.72577478,3.387380075,373.4380114
A-4641,"sodium 1-amino-9,10-dihydro-4-[[4-[[(4-methylphenyl)sulphonyl]oxy]phenyl]amino]-9,10-dioxoanthracene-2-sulphonate","InChI=1S/C27H20N2O8S2.Na/c1-15-6-12-18(13-7-15)39(35,36)37-17-10-8-16(9-11-17)29-21-14-22(38(32,33)34)25(28)24-23(21)26(30)19-4-2-3-5-20(19)27(24)31;/h2-14,29H,28H2,1H3,(H,32,33,34);/q;+1/p-1",YNYQQXPCRFXFIH-UHFFFAOYSA-M,[Na+].Cc1ccc(cc1)[S](=O)(=O)Oc2ccc(Nc3cc(c(N)c4C(=O)c5ccccc5C(=O)c34)[S]([O-])(=O)=O)cc2,-2.622198475,0,1,G1,586.579,0.77202,140.8421,40,10,2,13,6,198,4,0,1,5,172.76,251.8944611,3.70E-06,1888.450031
A-4642,ethyl [(4-methylphenyl)sulfonyl]carbamate,"InChI=1S/C10H13NO4S/c1-3-15-10(12)11-16(13,14)9-6-4-8(2)5-7-9/h4-7H,3H2,1-2H3,(H,11,12)",DFWQXANLGSXMKF-UHFFFAOYSA-N,CCOC(=O)N[S](=O)(=O)c1ccc(C)cc1,-2.243098748,0,1,G1,243.284,1.42982,58.5225,16,4,1,6,3,88,1,0,0,1,72.47,94.47687698,2.85944543,464.0973261
A-4644,calcium bis(2-methyloctanoate),"InChI=1S/2C9H18O2.Ca/c2*1-2-3-4-5-6-7-8-9(10)11;/h2*2-8H2,1H3,(H,10,11);/q;;+2/p-2",QSSGIYRIEKPVTG-UHFFFAOYSA-L,[Ca++].CCCCCCCCC([O-])=O.CCCCCCCCC([O-])=O,-2.412949573,0.518232851,2,G2,354.544,2.593,91.754,23,4,0,5,14,132,0,0,0,0,80.26,171.9763778,-3.33E-07,231.4061403
A-4645,(diethoxymethoxy)ethane,"InChI=1S/C7H16O3/c1-4-8-7(9-5-2)10-6-3/h7H,4-6H2,1-3H3",GKASDNZWUGIAMG-UHFFFAOYSA-N,CCOC(OCC)OCC,-2.040520296,0,1,G1,148.202,1.3795,38.666,10,3,0,3,6,62,0,0,0,0,27.69,62.2695394,3.295082116,51.60689651
A-4647,lithium(1+) ion fluoride,InChI=1S/FH.Li/h1H;/q;+1/p-1,PQXKHYXIUOZZFA-UHFFFAOYSA-M,[Li+].[F-],-1.290101588,0.013850254,3,G5,25.939,-5.992,0,2,0,0,2,0,8,0,0,0,0,0,24.39470625,0,2
A-4648,"N,N-dimethylnonanamide","InChI=1S/C11H23NO/c1-4-5-6-7-8-9-10-11(13)12(2)3/h4-10H2,1-3H3",DMLHJLWUADABON-UHFFFAOYSA-N,CCCCCCCCC(=O)N(C)C,-2.144049559,0,1,G1,185.311,2.8252,56.687,13,1,0,2,7,78,0,0,0,0,20.31,82.31002794,3.116343857,132.0519685
A-4649,1-isocyanato-4-(4-isocyanato-3-methylphenyl)-2-methylbenzene,"InChI=1S/C16H12N2O2/c1-11-7-13(3-5-15(11)17-9-19)14-4-6-16(18-10-20)12(2)8-14/h3-8H,1-2H3",ICLCCFKUSALICQ-UHFFFAOYSA-N,Cc1cc(ccc1N=C=O)c2ccc(N=C=O)c(C)c2,-2.308127519,0,1,G1,264.284,3.90504,76.915,20,4,0,4,3,98,2,0,0,2,58.86,116.061955,2.46419791,687.5673438
A-4652,4-phenylbut-3-en-2-one,"InChI=1S/C10H10O/c1-9(11)7-8-10-5-3-2-4-6-10/h2-8H,1H3/b8-7+",BWHOZHOGCMHOBV-BQYQJAHWSA-N,CC(=O)\C=C\c1ccccc1,-2.050971343,0,1,G1,146.189,2.2888,46.157,11,1,0,1,2,56,1,0,0,1,17.07,66.36309064,2.721773554,259.4610831
A-4654,"5-(4-hydroxyphenyl)imidazolidine-2,4-dione","InChI=1S/C9H8N2O3/c12-6-3-1-5(2-4-6)7-8(13)11-9(14)10-7/h1-4,7,12H,(H2,10,11,13,14)",UMTNMIARZPDSDI-UHFFFAOYSA-N,Oc1ccc(cc1)C2NC(=O)NC2=O,-2.17310492,0,1,G1,192.174,0.2727,47.5222,14,3,3,5,1,72,1,1,1,2,78.43,79.73740063,2.272284319,385.5484697
A-4655,sodium 2-(dodecanoyloxy)ethanesulfonate,"InChI=1S/C14H28O5S.Na/c1-2-3-4-5-6-7-8-9-10-11-14(15)19-12-13-20(16,17)18;/h2-13H2,1H3,(H,16,17,18);/q;+1/p-1",BRMSVEGRHOZCAM-UHFFFAOYSA-M,[Na+].CCCCCCCCCCCC(=O)OCC[S]([O-])(=O)=O,-2.408479245,0,1,G1,330.422,-0.0003,77.3672,21,5,0,7,13,120,0,0,0,0,83.5,150.8006015,0,343.2735297
A-4658,2-[(4-amino-2-nitrophenyl)amino]ethan-1-ol,"InChI=1S/C8H11N3O3/c9-6-1-2-7(10-3-4-12)8(5-6)11(13)14/h1-2,5,10,12H,3-4,9H2",GZGZVOLBULPDFD-UHFFFAOYSA-N,Nc1ccc(NCCO)c(c1)[N+]([O-])=O,-2.191089976,0,1,G1,197.194,0.5812,53.0843,14,5,3,6,4,76,1,0,0,1,101.42,80.4982497,2.960382588,340.6034311
A-4659,4-methyl-4-phenylpentan-2-ol,"InChI=1S/C12H18O/c1-10(13)9-12(2,3)11-7-5-4-6-8-11/h4-8,10,13H,9H2,1-3H3",NCYQVRNLBAYSLE-UHFFFAOYSA-N,CC(O)CC(C)(C)c1ccccc1,-2.147286724,0,1,G1,178.275,2.7351,55.7658,13,1,1,1,3,72,1,0,0,1,20.23,80.41528956,2.810733936,249.0868036
A-4661,naphthalen-1-ol,"InChI=1S/C10H8O/c11-10-7-3-5-8-4-1-2-6-9(8)10/h1-7,11H",KJCVRFUGPWSIIH-UHFFFAOYSA-N,Oc1cccc2ccccc12,-2.061973923,0.086271637,5,G5,144.173,2.5454,45.6128,11,1,1,1,0,54,2,0,0,2,20.23,64.9073014,2.913161164,374.0344904
A-4662,"2,3-dichloroaniline","InChI=1S/C6H5Cl2N/c7-4-2-1-3-5(9)6(4)8/h1-3H,9H2",BRPSAOUFIJSKOT-UHFFFAOYSA-N,Nc1cccc(Cl)c1Cl,-2.130384701,0,1,G1,162.019,2.5756,40.8744,9,1,1,3,0,48,1,0,0,1,26.02,63.37782627,3.247834734,202.0478871
A-4663,5-chloro-2-methylaniline,"InChI=1S/C7H8ClN/c1-5-2-3-6(8)4-7(5)9/h2-4H,9H2,1H3",WRZOMWDJOLIVQP-UHFFFAOYSA-N,Cc1ccc(Cl)cc1N,-2.071885074,0,1,G1,141.601,2.23062,40.6014,9,1,1,2,0,48,1,0,0,1,26.02,59.43950216,3.17167803,220.1561776
A-4664,N-acetyl-N-[2-(N-acetylacetamido)ethyl]acetamide,"InChI=1S/C10H16N2O4/c1-7(13)11(8(2)14)5-6-12(9(3)15)10(4)16/h5-6H2,1-4H3",BGRWYDHXPHLNKA-UHFFFAOYSA-N,CC(=O)N(CCN(C(C)=O)C(C)=O)C(C)=O,-2.279225735,1.460409377,2,G2,228.248,-0.2236,56.136,16,4,0,6,3,90,0,0,0,0,74.76,94.1894858,4.498226862,264.7807191
A-4665,"[9-methyl-6-(propan-2-yl)-1,4-dioxaspiro[4.5]decan-2-yl]methanol","InChI=1S/C13H24O3/c1-9(2)12-5-4-10(3)6-13(12)15-8-11(7-14)16-13/h9-12,14H,4-8H2,1-3H3",ZBJCYZPANVLBRK-UHFFFAOYSA-N,CC(C)C1CCC(C)CC12OCC(CO)O2,-2.279385535,0,1,G1,228.332,2.1826,61.9848,16,3,1,3,2,94,0,2,2,2,38.69,98.1282183,2.134117911,241.3322057
A-4666,"disodium 5,5'-[propane-2,2-diylbis(4,1-phenyleneoxysulfonyl-2,1-phenylenediazene-2,1-diyl)]bis(6-amino-4-hydroxynaphthalene-2-sulfonate)","InChI=1S/C47H38N6O14S4.2Na/c1-47(2,29-11-15-33(16-12-29)66-70(62,63)35-7-3-5-31(23-35)50-52-45-39(48)19-9-27-21-37(68(56,57)58)25-41(54)43(27)45)30-13-17-34(18-14-30)67-71(64,65)36-8-4-6-32(24-36)51-53-46-40(49)20-10-28-22-38(69(59,60)61)26-42(55)44(28)46;;/h3-26,48-53H,1-2H3,(H,56,57,58)(H,59,60,61);;/q;2*+1",DCWBGUSTCFJTDR-UHFFFAOYSA-N,[Na+].[Na+].CC(C)(c1ccc(O[S](=O)(=O)c2cccc(NNC3=C4C(=O)C=C(C=C4C=CC3=N)[S](O)(=O)=O)c2)cc1)c5ccc(O[S](=O)(=O)c6cccc(NNC7=C8C(=O)C=C(C=C8C=CC7=N)[S](O)(=O)=O)c6)cc5,-2.956287317,0,1,G1,1085.097,-0.36216,260.269,73,18,8,26,16,364,4,0,4,8,325.44,463.2696387,4.35E-06,3522.492473
A-4667,ethyl 2-phenylacetate,"InChI=1S/C10H12O2/c1-2-12-10(11)8-9-6-4-3-5-7-9/h3-7H,2,8H2,1H3",DULCUDSUACXJJC-UHFFFAOYSA-N,CCOC(=O)Cc1ccccc1,-2.136202486,0,1,G1,164.204,1.7922,46.779,12,2,0,2,3,64,1,0,0,1,26.3,72.16623891,2.471665961,241.275309
A-4668,nitrogen oxide,InChI=1S/N2O/c1-2-3,GQPLMRYTRLFLPF-UHFFFAOYSA-N,[N-]=[N+]=O,-1.564399726,0,1,G1,44.013,-0.1584,8.86,3,1,0,3,0,16,0,0,0,0,53.47,16.75598507,3.265986324,23.77443751
A-4669,"sodium 1-amino-4-({3-[(2-hydroxyethyl)sulfamoyl]-4,5-dimethylphenyl}amino)-9,10-dioxo-9,10-dihydroanthracene-2-sulfonate","InChI=1S/C24H23N3O8S2.Na/c1-12-9-14(10-18(13(12)2)36(31,32)26-7-8-28)27-17-11-19(37(33,34)35)22(25)21-20(17)23(29)15-5-3-4-6-16(15)24(21)30;/h3-6,9-11,26-28H,7-8,25H2,1-2H3,(H,33,34,35);/q;+1/p-1",MHHGZCMFNNAVCQ-UHFFFAOYSA-M,[Na+].Cc1cc(Nc2cc(c(N)c3C(=O)c4ccccc4C(=O)c23)[S]([O-])(=O)=O)cc(c1C)[S](=O)(=O)NCCO,-2.674843542,0,1,G1,567.577,-1.41666,133.5976,38,10,4,14,7,194,3,0,1,4,195.79,241.0891176,4.00E-06,1703.978279
A-4671,2-butyl-4-chloro-1H-imidazole-5-carbaldehyde,"InChI=1S/C8H11ClN2O/c1-2-3-4-7-10-6(5-12)8(9)11-7/h5H,2-4H2,1H3,(H,10,11)",JLVIHQCWASNXCK-UHFFFAOYSA-N,CCCCc1[nH]c(Cl)c(C=O)n1,-2.199127372,0,1,G1,186.642,2.2182,47.5972,12,2,1,4,4,66,1,0,0,1,45.75,76.14971042,2.680316353,270.0216186
A-4676,(3Z)-hex-3-en-1-yl acetate,"InChI=1S/C8H14O2/c1-3-4-5-6-7-10-8(2)9/h4-5H,3,6-7H2,1-2H3/b5-4-",NPFVOOAXDOBMCE-PLNGDYQASA-N,CC\C=C/CCOC(C)=O,-2.111500803,0.007756083,2,G3,142.198,1.9058,40.681,10,2,0,2,4,58,0,0,0,0,26.3,61.87931013,3.047630004,116.4259988
A-4678,"1-butyl-6-hydroxy-4-methyl-2-oxo-1,2-dihydropyridine-3-carbonitrile","InChI=1S/C11H14N2O2/c1-3-4-5-13-10(14)6-8(2)9(7-12)11(13)15/h6,15H,3-5H2,1-2H3",JSCJSXHNBIXPBU-UHFFFAOYSA-N,CCCCN1C(=O)C=C(C)C(=C1O)C#N,-2.272990744,0,1,G1,206.245,1.5341,56.7268,15,4,1,4,3,80,1,0,0,1,66.02,88.39901081,3.279278044,454.8813303
A-4679,2-methoxy-4-propylphenol,"InChI=1S/C10H14O2/c1-3-4-8-5-6-9(11)10(7-8)12-2/h5-7,11H,3-4H2,1-2H3",PXIKRTCSSLJURC-UHFFFAOYSA-N,CCCc1ccc(O)c(OC)c1,-2.179290593,0,1,G1,166.22,2.3533,48.6538,12,2,1,2,3,66,1,0,0,1,29.46,72.79895056,2.88865101,256.015534
A-4680,"3,4-dichlorobut-1-ene","InChI=1S/C4H6Cl2/c1-2-4(6)3-5/h2,4H,1,3H2",XVEASTGLHPVZNA-UHFFFAOYSA-N,ClCC(Cl)C=C,-2.055510379,0.24466186,3,G5,124.998,2.0186,30.558,6,0,0,2,2,36,0,0,0,0,0,47.75100679,2.964900495,42.81274391
A-4682,trilithium(1+) ion hexafluoroalumanetriuide,InChI=1S/Al.6FH.3Li/h;6*1H;;;/q+3;;;;;;;3*+1/p-6,VRSRNLHMYUACMN-UHFFFAOYSA-H,[Li+].[Li+].[Li+].[F-].[F-].[F-].[F-].[F-].[F-].[Al+3],-2.167567043,0,1,G1,161.793,-27.3448,5.754,10,0,0,10,0,48,0,0,0,0,0,101.5066651,0,12.95461844
A-4683,1-octylpyrrolidin-2-one,"InChI=1S/C12H23NO/c1-2-3-4-5-6-7-10-13-11-8-9-12(13)14/h2-11H2,1H3",WPPOGHDFAVQKLN-UHFFFAOYSA-N,CCCCCCCCN1CCCC1=O,-2.257749011,0.053242043,5,G5,197.322,2.9693,59.19,14,1,0,2,7,82,0,1,1,1,20.31,87.6691389,1.904676694,167.7046644