ID,Name,InChI,InChIKey,SMILES,Solubility,SD,Ocurrences,Group,MolWt,MolLogP,MolMR,HeavyAtomCount,NumHAcceptors,NumHDonors,NumHeteroatoms,NumRotatableBonds,NumValenceElectrons,NumAromaticRings,NumSaturatedRings,NumAliphaticRings,RingCount,TPSA,LabuteASA,BalabanJ,BertzCT
A-4157,1-Methyl-4-propan-2-ylcyclohexene,"InChI=1S/2C10H18/c2*1-8(2)10-6-4-9(3)5-7-10/h2*4,8,10H,5-7H2,1-3H3",GEEMIUONIWYDTI-UHFFFAOYSA-N,CC(C)C1CCC(=CC1)C.CC(C)C2CCC(=CC2)C,-5.495255436,0,1,G1,276.508,6.7776,91.872,20,0,0,0,2,116,0,0,2,2,0,127.288114,2.00E-07,295.9474732
A-4158,"1,1-dichloroethene",InChI=1S/C2H2Cl2/c1-2(3)4/h1H2,LGXVIGDEPROXKC-UHFFFAOYSA-N,ClC(Cl)=C,-1.588580927,0.022859537,2,G3,96.944,1.9352,20.846,4,0,0,2,0,24,0,0,0,0,0,35.02112256,2.803039488,27.01955001
A-4162,(6R)-3-methyl-6-(propan-2-yl)cyclohex-2-en-1-one,"InChI=1S/C10H16O/c1-7(2)9-5-4-8(3)6-10(9)11/h6-7,9H,4-5H2,1-3H3/t9-/m1/s1",YSTPAHQEHQSRJD-SECBINFHSA-N,CC(C)[C@H]1CCC(=CC1=O)C,-1.78824369,0,1,G1,152.237,2.5678,46.326,11,1,0,1,1,62,0,0,1,1,17.07,68.48981797,2.683723223,189.0494581
A-4163,"(2S,5R)-6-amino-3,3-dimethyl-7-oxo-4-thia-1-azabicyclo[3.2.0]heptane-2-carboxylic acid","InChI=1S/C8H12N2O3S/c1-8(2)4(7(12)13)10-5(11)3(9)6(10)14-8/h3-4,6H,9H2,1-2H3,(H,12,13)/t3-,4+,6-/m1/s1",NGHVIOIJCVXTGV-ALEPSDHESA-N,CC1(C)S[C@@H]2[C@H](N)C(=O)N2[C@H]1C(O)=O,-1.944045108,0,1,G1,216.262,-0.5394,51.7032,14,4,2,6,1,78,0,2,2,2,83.63,85.62229587,2.316550248,317.7082527
A-4165,"boron(+3) cation; N,N-dimethyloctan-1-amine; trichloride","InChI=1S/C10H23N.B.3ClH/c1-4-5-6-7-8-9-10-11(2)3;;;;/h4-10H2,1-3H3;;3*1H/q;+3;;;/p-3",SBDAPZFOTCURRM-UHFFFAOYSA-K,[B+3].[Cl-].[Cl-].[Cl-].CCCCCCCCN(C)C,-5.465370193,0,1,G1,274.472,-6.4603,57.684,15,1,0,5,7,92,0,0,0,0,3.24,116.5649538,-8.33E-08,85.06775238
A-4167,2-chlorobenzenethiol,"InChI=1S/C6H5ClS/c7-5-3-1-2-4-6(5)8/h1-4,8H",PWOBDMNCYMQTCE-UHFFFAOYSA-N,Sc1ccccc1Cl,-1.780035133,0.439450989,3,G5,144.626,2.6287,38.704,8,1,1,2,0,42,1,0,0,1,0,58.88973601,3.134861511,164.6383389
A-4169,3-aminopyrazine-2-carboxylic acid,"InChI=1S/C5H5N3O2/c6-4-3(5(9)10)7-1-2-8-4/h1-2H,(H2,6,8)(H,9,10)",ZAGZIOYVEIDDJA-UHFFFAOYSA-N,Nc1nccnc1C(O)=O,-1.763159597,0,1,G1,139.114,-0.243,33.4037,10,4,2,5,1,52,1,0,0,1,89.1,56.53128775,3.152941447,260.8249054
A-4170,[(2-chlorophenyl)methyl]dimethylamine,"InChI=1S/C9H12ClN/c1-11(2)7-8-5-3-4-6-9(8)10/h3-6H,7H2,1-2H3",MZKKJAOOPDDXQQ-UHFFFAOYSA-N,CN(C)Cc1ccccc1Cl,-1.849355422,0.856605222,2,G2,169.655,2.4016,48.843,11,1,0,2,2,60,1,0,0,1,3.24,72.58932936,2.77550132,232.7592718
A-4171,"calcium diethyl bis[[[3,5-bis(1,1-dimethylethyl)-4-hydroxyphenyl]methyl]phosphonate]","InChI=1S/2C17H29O4P.Ca/c2*1-8-21-22(19,20)11-12-9-13(16(2,3)4)15(18)14(10-12)17(5,6)7;/h2*9-10,18H,8,11H2,1-7H3,(H,19,20);/q;;+2/p-2",SJEZDMHBMZPMME-UHFFFAOYSA-L,[Ca++].CCO[P]([O-])(=O)Cc1cc(c(O)c(c1)C(C)(C)C)C(C)(C)C.CCO[P]([O-])(=O)Cc2cc(c(O)c(c2)C(C)(C)C)C(C)(C)C,-2.46167357,0,1,G1,694.84,7.7734,182.6406,45,8,2,11,8,252,2,0,0,2,139.18,301.9687293,8.42E-07,1201.013075
A-4175,"diallyl oxydiethane-2,1-diyl biscarbonate","InChI=1S/C12H18O7/c1-3-5-16-11(13)18-9-7-15-8-10-19-12(14)17-6-4-2/h3-4H,1-2,5-10H2",JHQVCQDWGSXTFE-UHFFFAOYSA-N,C=CCOC(=O)OCCOCCOC(=O)OCC=C,-2.06526472,0,1,G1,274.269,1.6814,65.813,19,7,0,7,10,108,0,0,0,0,80.29,111.2651786,3.263296478,259.802486
A-4176,oct-7-en-1-ol,"InChI=1S/C8H16O/c1-2-3-4-5-6-7-8-9/h2,9H,1,3-8H2",WXPWPYISTQCNDP-UHFFFAOYSA-N,OCCCCCCC=C,-1.744232864,0.016080929,2,G3,128.215,2.1152,40.3678,9,1,1,1,6,54,0,0,0,0,20.23,57.39847655,2.663883887,59.58797504
A-4178,benzenesulfonyl chloride,"InChI=1S/C6H5ClO2S/c7-10(8,9)6-4-2-1-3-5-6/h1-5H",CSKNSYBAZOQPLR-UHFFFAOYSA-N,Cl[S](=O)(=O)c1ccccc1,-1.88532188,0,1,G1,176.624,1.6141,39.4808,10,2,0,4,1,54,1,0,0,1,34.14,63.86387098,3.218646629,303.7795181
A-4179,"3-[(2-isopropyl-5-methylcyclohexyl)oxy]propane-1,2-diol","InChI=1S/C13H26O3/c1-9(2)12-5-4-10(3)6-13(12)16-8-11(15)7-14/h9-15H,4-8H2,1-3H3",MDVYIGJINBYKOM-UHFFFAOYSA-N,CC(C)C1CCC(C)CC1OCC(O)CO,-2.006358589,0,1,G1,230.348,1.817,64.1756,16,3,2,3,5,96,0,1,1,1,49.69,98.81473798,2.442655172,193.6167279
A-4180,3-hydroxy-4-methoxybenzaldehyde,"InChI=1S/C8H8O3/c1-11-8-3-2-6(5-9)4-7(8)10/h2-5,10H,1H3",JVTZFYYHCGSXJV-UHFFFAOYSA-N,COc1ccc(C=O)cc1O,-1.826243245,0,1,G1,152.149,1.2133,40.0463,11,3,1,3,2,58,1,0,0,1,46.53,64.23058843,3.085452502,268.0397226
A-4181,4-methylbenzaldehyde,"InChI=1S/C8H8O/c1-7-2-4-8(6-9)5-3-7/h2-6H,1H3",FXLOVSHXALFLKQ-UHFFFAOYSA-N,Cc1ccc(C=O)cc1,-1.723701533,0.479042924,2,G3,120.151,1.80752,36.5665,9,1,0,1,1,46,1,0,0,1,17.07,54.32280945,3.009781948,198.3125496
A-4182,4-amino-3-nitrophenol,"InChI=1S/C6H6N2O3/c7-5-2-1-4(9)3-6(5)8(10)11/h1-3,9H,7H2",IQXUIDYRTHQTET-UHFFFAOYSA-N,Nc1ccc(O)cc1[N+]([O-])=O,-1.833764651,0,1,G1,154.125,0.8826,39.1736,11,4,2,5,1,58,1,0,0,1,89.39,62.21850329,3.23220887,297.8789117
A-4184,2-nitrophenol,"InChI=1S/C6H5NO3/c8-6-4-2-1-3-5(6)7(9)10/h1-4,8H",IQUPABOKLQSFBK-UHFFFAOYSA-N,Oc1ccccc1[N+]([O-])=O,-1.802914236,0.032277333,3,G5,139.11,1.3004,34.7612,10,3,1,4,1,52,1,0,0,1,63.37,56.87861259,3.152941447,258.9247709
A-4185,"2,4,6-trimethylcyclohex-3-ene-1-carbaldehyde","InChI=1S/C10H16O/c1-7-4-8(2)10(6-11)9(3)5-7/h4,6,8-10H,5H2,1-3H3",YJSUCBQWLKRPDL-UHFFFAOYSA-N,CC1CC(=CC(C)C1C=O)C,-1.844063724,0,1,G1,152.237,2.4237,46.256,11,1,0,1,1,62,0,0,1,1,17.07,68.48981797,2.76225729,181.3117986
A-4186,5-pentyloxolan-2-one,"InChI=1S/C9H16O2/c1-2-3-4-5-8-6-7-9(10)11-8/h8H,2-7H2,1H3/t8-/m0/s1",OALYTRUKMRCXNH-QMMMGPOBSA-N,CCCCC[C@H]1CCC(=O)O1,-1.85529404,0,1,G1,156.225,2.2723,43.256,11,2,0,2,4,64,0,1,1,1,26.3,67.92802412,2.03593062,131.5244228
A-4188,"1-(2,6-dimethylphenoxy)acetone","InChI=1S/C11H14O2/c1-8-5-4-6-9(2)11(8)13-7-10(3)12/h4-6H,7H2,1-3H3",XDJULAUHYAJQBU-UHFFFAOYSA-N,CC(=O)COc1c(C)cccc1C,-1.918544784,0,1,G1,178.231,2.27124,52.092,13,2,0,2,3,70,1,0,0,1,26.3,78.53118102,2.806920562,295.6163595
A-4189,"2,5-dimethoxyaniline","InChI=1S/C8H11NO2/c1-10-6-3-4-8(11-2)7(9)5-6/h3-5H,9H2,1-2H3",NAZDVUBIEPVUKE-UHFFFAOYSA-N,COc1ccc(OC)c(N)c1,-1.858869039,0,1,G1,153.181,1.286,43.9584,11,3,1,3,2,60,1,0,0,1,44.48,65.7282685,2.992962952,247.8474159
A-4192,"N-(2,4-dimethylphenyl)-3-oxobutanamide","InChI=1S/C12H15NO2/c1-8-4-5-11(9(2)6-8)13-12(15)7-10(3)14/h4-6H,7H2,1-3H3,(H,13,15)",HGVIAKXYAZRSEG-UHFFFAOYSA-N,CC(=O)CC(=O)Nc1ccc(C)cc1C,-1.990078682,0,1,G1,205.257,2.22104,59.8437,15,2,1,3,3,80,1,0,0,1,46.17,89.49396219,2.723715574,396.6086347
A-4193,N-(2-methoxy-5-methylphenyl)acetamide,"InChI=1S/C10H13NO2/c1-7-4-5-10(13-3)9(6-7)11-8(2)12/h4-6H,1-3H3,(H,11,12)",POLMNXCVMYMLSF-UHFFFAOYSA-N,COc1ccc(C)cc1NC(C)=O,-1.931164755,0,1,G1,179.219,1.96202,52.0347,13,2,1,3,2,70,1,0,0,1,38.33,77.71610109,3.005387049,320.7008263
A-4197,"5-methyl-2-phenyl-2,3-dihydro-1H-pyrazol-3-one","InChI=1S/C10H10N2O/c1-8-7-10(13)12(11-8)9-5-3-2-4-6-9/h2-6H,7H2,1H3",QELUYTUMUWHWMC-UHFFFAOYSA-N,CC1=NN(C(=O)C1)c2ccccc2,-1.925085284,0.058499473,2,G3,174.203,1.7992,51.654,13,2,0,3,1,66,1,0,1,2,32.67,76.6721547,2.326238618,356.4473121
A-4198,heptanal,"InChI=1S/C7H14O/c1-2-3-4-5-6-7-8/h7H,2-6H2,1H3",FXHGMKSSBGDXIY-UHFFFAOYSA-N,CCCCCCC=O,-1.750124429,0.112949851,3,G5,114.188,2.1557,34.823,8,1,0,1,5,48,0,0,0,0,17.07,51.09042581,2.61629309,50.34851555
A-4200,tert-butyl prop-2-enoate,"InChI=1S/C7H12O2/c1-5-6(8)9-7(2,3)4/h5H,1H2,2-4H3",ISXSCDLOGDJUNJ-UHFFFAOYSA-N,CC(C)(C)OC(=O)C=C,-1.804593715,0.194691103,2,G3,128.171,1.5141,36.042,9,2,0,2,1,52,0,0,0,0,26.3,55.51436801,3.736394292,119.3680656
A-4202,"2-Hydroxy-N,N-dimethylpropanamide","InChI=1S/C5H11NO2/c1-4(7)5(8)6(2)3/h4,7H,1-3H3",YEBLAXBYYVCOLT-UHFFFAOYSA-N,CC(O)C(=O)N(C)C,1.630235126,0,1,G1,117.148,-0.5446,30.3748,8,2,1,3,1,48,0,0,0,0,40.54,48.91460901,3.651233579,78.42945954
A-4203,azanium 2-hydroxyacetate,"InChI=1S/C2H4O3.H3N/c3-1-2(4)5;/h3H,1H2,(H,4,5);1H3",UBKBVPONTPMQQW-UHFFFAOYSA-N,[NH4+].OCC([O-])=O,1.700915909,0,1,G1,93.082,-1.8952,18.0776,6,3,2,4,1,38,0,0,0,0,96.86,34.98993311,0,44.05785641
A-4204,"1,1'-binaphthalene-8,8'-dicarboxylic acid","InChI=1S/C22H14O4/c23-21(24)17-11-3-7-13-5-1-9-15(19(13)17)16-10-2-6-14-8-4-12-18(20(14)16)22(25)26/h1-12H,(H,23,24)(H,25,26)",XGDAODQNSVFBGM-UHFFFAOYSA-N,OC(=O)c1cccc2cccc(c3cccc4cccc(C(O)=O)c34)c12,-2.233440337,0,1,G1,342.35,5.0564,100.8086,26,2,2,4,3,126,4,0,0,4,74.6,148.4932223,2.186944659,1085.582961
A-4205,2-methylpropyl prop-2-enoate,"InChI=1S/C7H12O2/c1-4-7(8)9-5-6(2)3/h4,6H,1,5H2,2-3H3",CFVWNXQPGQOHRJ-UHFFFAOYSA-N,CC(C)COC(=O)C=C,-1.806759777,0.292697117,3,G5,128.171,1.3716,35.994,9,2,0,2,3,52,0,0,0,0,26.3,55.51436801,3.272501472,105.4837784
A-4206,3-phenylbutanal,"InChI=1S/C10H12O/c1-9(7-8-11)10-5-3-2-4-6-10/h2-6,8-9H,7H2,1H3",MYHGOWDLVRDUFA-UHFFFAOYSA-N,CC(CC=O)c1ccccc1,-1.86983286,0,1,G1,148.205,2.3791,45.538,11,1,0,1,3,58,1,0,0,1,17.07,67.05269368,2.680097321,215.5742034
A-4207,4-amino-3-methylphenol,"InChI=1S/C7H9NO/c1-5-4-6(9)2-3-7(5)8/h2-4,9H,8H2,1H3",QGNGOGOOPUYKMC-UHFFFAOYSA-N,Cc1cc(O)ccc1N,-1.789422053,0.07745098,2,G3,123.155,1.28282,37.2562,9,2,2,2,0,48,1,0,0,1,46.25,53.93046968,3.17167803,220.1561776
A-4211,methyl 2-oxo-2-phenylacetate,"InChI=1S/C9H8O3/c1-12-9(11)8(10)7-5-3-2-4-6-7/h2-6H,1H3",YLHXLHGIAMFFBU-UHFFFAOYSA-N,COC(=O)C(=O)c1ccccc1,-1.914237348,1.497839313,2,G2,164.16,1.0423,42.7885,12,3,0,3,2,62,1,0,0,1,43.37,69.96281889,2.861313088,289.9017745
A-4215,disodium 6-amino-3-sulfo-2-[(E)-2-{4-[(E)-2-(4-sulfonatophenyl)diazen-1-yl]phenyl}diazen-1-yl]naphthalen-1-olate,"InChI=1S/C22H17N5O7S2.2Na/c23-14-1-10-19-13(11-14)12-20(36(32,33)34)21(22(19)28)27-26-16-4-2-15(3-5-16)24-25-17-6-8-18(9-7-17)35(29,30)31;;/h1-12,28H,23H2,(H,29,30,31)(H,32,33,34);;/q;2*+1/p-2",DNDMQQPFVIIALP-UHFFFAOYSA-L,[Na+].[Na+].Nc1ccc2c([O-])c(N=Nc3ccc(cc3)N=Nc4ccc(cc4)[S]([O-])(=O)=O)c(cc2c1)[S](O)(=O)=O,-0.460354084,0,1,G1,571.504,-1.5148,126.8202,38,11,2,16,6,184,4,0,0,4,210.09,261.3390075,2.53E-06,1746.153639
A-4216,4-(aminomethyl)-2-methoxyphenol hydrochloride,"InChI=1S/C8H11NO2.Cl/c1-11-8-4-6(5-9)2-3-7(8)10;/h2-4,10H,5,9H2,1H3;",LOYPVODLNGWOLM-UHFFFAOYSA-N,[Cl].COc1cc(CN)ccc1O,0.018846252,0,1,G1,188.634,1.549,48.4032,12,3,2,4,2,67,1,0,0,1,55.48,77.56205028,1.21E-06,252.8132181
A-4217,"disodium 4-{4-[(E)-2-[5-(2-bromoprop-2-enamido)-2-sulfonatophenyl]diazen-1-yl]-3-methyl-5-oxo-4,5-dihydro-1H-pyrazol-1-yl}-2,5-dichlorobenzene-1-sulfonate","InChI=1S/C19H14BrCl2N5O8S2.2Na/c1-8(20)18(28)23-10-3-4-15(36(30,31)32)13(5-10)24-25-17-9(2)26-27(19(17)29)14-6-12(22)16(7-11(14)21)37(33,34)35;;/h3-7,17H,1H2,2H3,(H,23,28)(H,30,31,32)(H,33,34,35);;/q;2*+1/p-2",JVURCOFLRNSPQI-UHFFFAOYSA-L,[Na+].[Na+].CC1=NN(C(=O)C1N=Nc2cc(NC(=O)C(Br)=C)ccc2[S]([O-])(=O)=O)c3cc(Cl)c(cc3Cl)[S]([O-])(=O)=O,-0.550169975,0,1,G1,699.256,-2.4683,134.4261,39,11,1,20,7,196,2,0,1,3,200.89,284.8507857,3.80E-06,1638.312235
A-4218,"hexasodium 6,13-dichloro-3,10-bis({[2-({4-chloro-6-[(2,4-disulfonatophenyl)amino]-1,3,5-triazin-2-yl}amino)ethyl]amino})-5,12-dioxa-7,14-diazapentacene-4,11-disulfonate","InChI=1S/C40H30Cl4N14O20S6.6Na/c41-25-28-32(78-30-20(50-28)6-8-22(34(30)84(74,75)76)46-10-12-48-38-54-36(44)56-40(58-38)52-18-4-2-16(80(62,63)64)14-24(18)82(68,69)70)26(42)27-31(25)77-29-19(49-27)5-7-21(33(29)83(71,72)73)45-9-11-47-37-53-35(43)55-39(57-37)51-17-3-1-15(79(59,60)61)13-23(17)81(65,66)67;;;;;;/h1-8,13-14,45-46H,9-12H2,(H,59,60,61)(H,62,63,64)(H,65,66,67)(H,68,69,70)(H,71,72,73)(H,74,75,76)(H2,47,51,53,55,57)(H2,48,52,54,56,58);;;;;;/q;6*+1/p-6",LNXCMNGXHAOOOW-UHFFFAOYSA-H,[Na+].[Na+].[Na+].[Na+].[Na+].[Na+].[O-][S](=O)(=O)c1ccc(Nc2nc(Cl)nc(NCCNc3ccc4N=C5C(=C6Oc7c(ccc(NCCNc8nc(Cl)nc(Nc9ccc(cc9[S]([O-])(=O)=O)[S]([O-])(=O)=O)n8)c7[S]([O-])(=O)=O)N=C6C(=C5Oc4c3[S]([O-])(=O)=O)Cl)Cl)n2)c(c1)[S]([O-])(=O)=O,-0.879554019,0,1,G1,1492.864,-15.232,281.9874,90,34,6,50,20,444,7,0,2,9,535.9,661.3221496,3.53E-06,4561.807963
A-4221,"tris(2-hydroxypropan-1-aminium) 2-hydroxypropane-1,2,3-tricarboxylate","InChI=1S/C6H8O7.C3H9NO/c7-3(8)1-6(13,5(11)12)2-4(9)10;1-3(5)2-4/h13H,1-2H2,(H,7,8)(H,9,10)(H,11,12);3,5H,2,4H2,1H3",KFAOXEXTCSIFGD-UHFFFAOYSA-N,CC(O)CN.OC(=O)CC(O)(CC(O)=O)C(O)=O,0.862920127,0,1,G1,267.234,-1.9226,57.8264,18,6,6,9,6,106,0,0,0,0,178.38,102.4602449,0,284.9427607
A-4223,"2-methylbenzene-1,3-diol","InChI=1S/C7H8O2/c1-5-6(8)3-2-4-7(5)9/h2-4,8-9H,1H3",ZTMADXFOCUXMJE-UHFFFAOYSA-N,Cc1c(O)cccc1O,0.192772727,0.066813637,2,G3,124.139,1.40622,34.5086,9,2,2,2,0,48,1,0,0,1,40.46,53.38481274,3.247834734,197.9061776
A-4224,2-methylbut-3-en-2-ol,"InChI=1S/C5H10O/c1-4-5(2,3)6/h4,6H,1H2,2-3H3",HNVRRHSXBLFLIG-UHFFFAOYSA-N,CC(C)(O)C=C,0.351057238,0.356871381,2,G3,86.134,0.9433,26.4948,6,1,1,1,1,36,0,0,0,0,20.23,38.30365021,3.445991214,49.44900955
A-4225,dilithium adipate,"InChI=1S/C6H10O4.2Li/c7-5(8)3-1-2-4-6(9)10;;/h1-4H2,(H,7,8)(H,9,10);;/q;2*+1/p-2",ZPJGNHUPXGDASP-UHFFFAOYSA-L,[Li+].[Li+].[O-]C(=O)CCCCC([O-])=O,0.084622153,0.320737711,5,G5,158.008,-7.9454,28.482,12,4,0,6,5,58,0,0,0,0,80.26,95.07060436,-4.05E-07,121.509775
A-4226,dilithium(1+) ion decanedioate,"InChI=1S/C10H18O4.2Li/c11-9(12)7-5-3-1-2-4-6-8-10(13)14;;/h1-8H2,(H,11,12)(H,13,14);;/q;2*+1/p-2",QFFPUGXEOWMNCP-UHFFFAOYSA-L,[Li+].[Li+].[O-]C(=O)CCCCCCCCC([O-])=O,-0.047347893,0.320737711,5,G5,214.116,-6.385,46.95,16,4,0,6,9,82,0,0,0,0,80.26,120.5303728,-8.45E-07,165.6578428
A-4227,dilithium(1+) ion nonanedioate,"InChI=1S/C9H16O4.2Li/c10-8(11)6-4-2-1-3-5-7-9(12)13;;/h1-7H2,(H,10,11)(H,12,13);;/q;2*+1/p-2",KCEQQLDYFGMIGU-UHFFFAOYSA-L,[Li+].[Li+].[O-]C(=O)CCCCCCCC([O-])=O,-0.017921985,0.320737711,5,G5,200.089,-6.7751,42.333,15,4,0,6,8,76,0,0,0,0,80.26,114.1654307,-7.20E-07,155.4952794
A-4228,"7-amino-4-hydroxy-3-[[4-[(4-sulphophenyl)azo]phenyl]azo]naphthalene-2-sulphonic acid, compound with 2,2',2''-nitrilotriethanol (1:2)","InChI=1S/C22H17N5O7S2.2C6H15NO3/c23-14-1-10-19-13(11-14)12-20(36(32,33)34)21(22(19)28)27-26-16-4-2-15(3-5-16)24-25-17-6-8-18(9-7-17)35(29,30)31;2*8-4-1-7(2-5-9)3-6-10/h1-12,26H,23H2,(H,29,30,31)(H,32,33,34);2*8-10H,1-6H2/b25-24?,27-21-;;",UXTCBUCQMQNXQI-XDJFIHLNSA-N,Nc1ccc2C(=O)C(=N/Nc3ccc(cc3)N=Nc4ccc(cc4)[S](O)(=O)=O)\C(=Cc2c1)[S](O)(=O)=O.OCCN(CCO)CCO.OCCN(CCO)CCO,-0.635904616,0,1,G1,825.92,0.3546,208.0376,56,18,10,22,18,308,3,0,1,4,328.8,323.6067467,4.45E-07,1948.582278
A-4232,"disodium 7-[(dichloro-1,3,5-triazin-2-yl)amino]-4-hydroxy-3-(2-{4-[2-(sulfonatooxy)ethanesulfonyl]phenyl}diazen-1-yl)naphthalene-2-sulfonate","InChI=1S/C21H16Cl2N6O10S3.2Na/c22-19-25-20(23)27-21(26-19)24-13-3-6-15-11(9-13)10-16(41(33,34)35)17(18(15)30)29-28-12-1-4-14(5-2-12)40(31,32)8-7-39-42(36,37)38;;/h1-6,9-10,30H,7-8H2,(H,33,34,35)(H,36,37,38)(H,24,25,26,27);;/q;2*+1/p-2",QPRQPQPFGRDKCN-UHFFFAOYSA-L,[Na+].[Na+].Oc1c2ccc(Nc3nc(Cl)nc(Cl)n3)cc2cc(c1N=Nc4ccc(cc4)[S](=O)(=O)CCO[S]([O-])(=O)=O)[S]([O-])(=O)=O,-1.578382357,0,1,G1,723.462,-2.6412,145.0257,44,16,2,23,10,222,4,0,0,4,253.42,304.0455092,3.37E-06,2035.123866
A-4236,"2-hydroxypropanoic acid; 7-{[bis({[3-(diethylamino)propyl]amino})-1,3,5-triazin-2-yl]amino}-4-hydroxy-3-[(E)-2-(2-oxo-2,3-dihydro-1H-1,3-benzodiazol-5-yl)diazen-1-yl]naphthalene-2-sulfonic acid","InChI=1S/C34H46N12O5S.C3H6O3/c1-5-45(6-2)17-9-15-35-31-40-32(36-16-10-18-46(7-3)8-4)42-33(41-31)37-23-11-13-25-22(19-23)20-28(52(49,50)51)29(30(25)47)44-43-24-12-14-26-27(21-24)39-34(48)38-26;1-2(4)3(5)6/h11-14,19-21,47H,5-10,15-18H2,1-4H3,(H2,38,39,48)(H,49,50,51)(H3,35,36,37,40,41,42);2,4H,1H3,(H,5,6)",LAVCAJLTFZEZAW-UHFFFAOYSA-N,CCN(CC)CCCNc1nc(NCCCN(CC)CC)nc(Nc2ccc3c(O)c(N=Nc4ccc5NC(=O)Nc5c4)c(cc3c2)[S](O)(=O)=O)n1.CC(O)C(O)=O,-0.64043406,0,1,G1,824.966,5.0451,222.7385,58,16,9,21,20,314,5,0,0,5,286.74,335.1569332,1.15E-06,2303.935211
A-4237,tin(4+) disulfate,"InChI=1S/H2O4S.Sn/c1-5(2,3)4;/h(H2,1,2,3,4);/q;+2/p-2",OBBXFSIWZVFYJR-UHFFFAOYSA-L,[Sn++].[O-][S]([O-])(=O)=O,-0.057823856,0,1,G1,214.774,-1.7188,16.2286,6,4,0,6,0,34,0,0,0,0,80.26,52.0846654,0,90.71649287
A-4238,"4-[(2,4-dichloro-5-methoxyphenyl)amino]-6-methoxy-7-[3-(4-methylpiperazin-1-yl)propoxy]quinoline-3-carbonitrile","InChI=1S/C26H29Cl2N5O3/c1-32-6-8-33(9-7-32)5-4-10-36-25-13-21-18(11-24(25)35-3)26(17(15-29)16-30-21)31-22-14-23(34-2)20(28)12-19(22)27/h11-14,16H,4-10H2,1-3H3,(H,30,31)",UBPYILGKFZZVDX-UHFFFAOYSA-N,COc1cc(Nc2c(cnc3cc(OCCCN4CCN(C)CC4)c(OC)cc23)C#N)c(Cl)cc1Cl,-4.879551326,0.183988393,2,G3,530.456,5.19038,143.3557,36,8,1,10,9,190,3,1,1,4,82.88,220.8076193,1.570806637,1272.894954
A-4240,acetaldehyde oxime,"InChI=1S/C2H5NO/c1-2-3-4/h2,4H,1H3/b3-2+",FZENGILVLUJGJX-NSCUHMNNSA-N,C/C=N/O,0.495819462,0,1,G1,59.068,0.4663,15.9525,4,2,1,2,0,24,0,0,0,0,32.59,24.74778788,2.549193338,21.21928095
A-4241,lithium(1+) ion bromide,InChI=1S/BrH.Li/h1H;/q;+1/p-1,AMXOYNBUYSYVKV-UHFFFAOYSA-M,[Li+].[Br-],1.32370627,0,1,G1,86.845,-5.992,0,2,0,0,2,0,8,0,0,0,0,0,36.1787454,0,2
A-4242,A mixture of RR and RS isomers of: (2-(2-methoxy-1-methyl)ethoxy)-1-methylethyl acetate; (2-(2-methoxy-2-methyl)ethoxy)-1-methylethyl acetate; (2-(2-methoxy-2-methyl)ethoxy)-2-methylethyl acetate; (2-(2-methoxy-1-methyl)ethoxy)-2-methylethyl acetate,"InChI=1S/C9H18O4/c1-4-9(13-8(2)10)12-7-5-6-11-3/h9H,4-7H2,1-3H3",USDXBNSCKZJDLC-UHFFFAOYSA-N,CCC(OCCCOC)OC(C)=O,-0.016848465,0.012674232,2,G3,190.239,1.3387,48.29,13,4,0,4,7,78,0,0,0,0,44.76,79.16094573,3.418286387,135.5763913
A-4244,sodium dithionite,"InChI=1S/2Na.H2O4S2/c;;1-5(2)6(3)4/h;;(H,1,2)(H,3,4)/q2*+1;/p-2",JVBXVOWTABLYPX-UHFFFAOYSA-L,[Na+].[Na+].[O-][S](=O)[S]([O-])=O,0.018292129,0,1,G1,174.11,-7.3324,17.8396,8,4,0,8,1,38,0,0,0,0,80.26,95.35605391,-1.25E-07,78.03910002
A-4246,(2E)-but-2-enal,"InChI=1S/C4H6O/c1-2-3-4-5/h2-4H,1H3/b3-2-",MLUCVPSAIODCQM-IHWYPQMZSA-N,C\C=C/C=O,0.412016319,0,1,G1,70.091,0.7614,20.878,5,1,0,1,1,28,0,0,0,0,17.07,31.30599644,2.924418198,45.60964047
A-4248,"2,3-dimethyloxirane","InChI=1S/C4H8O/c1-3-4(2)5-3/h3-4H,1-2H3",PQXKWPLDPFFDJP-UHFFFAOYSA-N,CC1OC1C,0.397295078,0,1,G1,72.107,0.7936,20.009,5,1,0,1,0,30,0,1,1,1,12.53,31.94179145,2.203440344,36.91260938
A-4249,sodium nonyl sulfate,"InChI=1S/C9H20O4S.Na/c1-2-3-4-5-6-7-8-9-13-14(10,11)12;/h2-9H2,1H3,(H,10,11,12);/q;+1/p-1",FTWCSAMTIKSPAT-UHFFFAOYSA-M,[Na+].CCCCCCCCCO[S]([O-])(=O)=O,-0.13619896,0,1,G1,246.304,-0.7822,53.6422,15,4,0,6,9,86,0,0,0,0,66.43,115.0233727,0,216.152234
A-4250,Basic red 1:1,"InChI=1S/C27H29N2O3.ClH/c1-6-28-22-14-24-20(12-16(22)3)26(18-10-8-9-11-19(18)27(30)31-5)21-13-17(4)23(29-7-2)15-25(21)32-24;/h8-15,28-29H,6-7H2,1-5H3;1H/q+1;/p-1",WDTZNHRKHNKDOU-UHFFFAOYSA-M,[Cl-].CCNc1cc2[o+]c3cc(NCC)c(C)cc3c(c2cc1C)c4ccccc4C(=O)OC,-1.390984611,0,1,G1,464.993,3.80514,132.7039,33,4,2,6,6,172,4,0,0,4,61.66,200.1040651,3.06E-06,1264.497309
A-4252,4-ethoxyaniline,"InChI=1S/C8H11NO/c1-2-10-8-5-3-7(9)4-6-8/h3-6H,2,9H2,1H3",IMPPGHMHELILKG-UHFFFAOYSA-N,CCOc1ccc(N)cc1,-0.860835326,0.012284096,2,G3,137.182,1.6675,42.0234,10,2,1,2,2,54,1,0,0,1,35.25,60.61472327,2.693803452,192.9174942
A-4254,3-(2-chlorophenyl)-3-oxopropanenitrile,"InChI=1S/C9H6ClNO/c10-8-4-2-1-3-7(8)9(12)5-6-11/h1-4H,5H2",SBSWHTFHLWSSQS-UHFFFAOYSA-N,Clc1ccccc1C(=O)CC#N,-2.175139595,0,1,G1,179.606,2.43638,46.0125,12,2,0,3,2,60,1,0,0,1,40.86,75.38359747,2.966312248,340.6269264
A-4257,2-[(2-methylprop-2-enoyl)oxy]ethyl 3-oxobutanoate,"InChI=1S/C10H14O5/c1-7(2)10(13)15-5-4-14-9(12)6-8(3)11/h1,4-6H2,2-3H3",IBDVWXAVKPRHCU-UHFFFAOYSA-N,CC(=O)CC(=O)OCCOC(=O)C(C)=C,-1.063682205,0,1,G1,214.217,0.628,52.03,15,5,0,5,6,84,0,0,0,0,69.67,88.04578378,3.545971121,279.5373352
A-4258,"1,3-dihydro-2-benzofuran-1-one","InChI=1S/C8H6O2/c9-8-7-4-2-1-3-6(7)5-10-8/h1-4H,5H2",WNZQDUSMALZDQF-UHFFFAOYSA-N,O=C1OCc2ccccc12,-0.862721053,0,1,G1,134.134,1.357,35.5615,10,2,0,2,0,50,1,0,1,2,26.3,58.43052352,2.610061875,278.3410097
A-4259,"3-(5-imino-3-methyl-4,5-dihydro-1H-pyrazol-1-yl)benzene-1-sulfonic acid","InChI=1S/C10H11N3O3S/c1-7-5-10(11)13(12-7)8-3-2-4-9(6-8)17(14,15)16/h2-4,6,11H,5H2,1H3,(H,14,15,16)",INHXSMASASFALB-UHFFFAOYSA-N,CC1=NN(C(=N)C1)c2cccc(c2)[S](O)(=O)=O,-1.138788219,0,1,G1,253.283,1.49657,64.1883,17,4,2,7,2,90,1,0,1,2,93.82,98.82461961,2.446226843,606.9770672
A-4260,1-benzylpiperidin-4-one,"InChI=1S/C12H15NO/c14-12-6-8-13(9-7-12)10-11-4-2-1-3-5-11/h1-5H,6-10H2",SJZKULRDWHPHGG-UHFFFAOYSA-N,O=C1CCN(CC1)Cc2ccccc2,-1.016982858,0,1,G1,189.258,1.8515,55.96,14,2,0,2,2,74,1,1,1,2,20.31,84.53658042,1.894682199,297.3575849