ID,Name,InChI,InChIKey,SMILES,Solubility,SD,Ocurrences,Group,MolWt,MolLogP,MolMR,HeavyAtomCount,NumHAcceptors,NumHDonors,NumHeteroatoms,NumRotatableBonds,NumValenceElectrons,NumAromaticRings,NumSaturatedRings,NumAliphaticRings,RingCount,TPSA,LabuteASA,BalabanJ,BertzCT
A-2519,"4',4'''-azobis[N-(9,10-dihydro-9,10-dioxo-1-anthryl)[1,1'-biphenyl]-4-carboxamide]","InChI=1S/C54H32N4O6/c59-49-39-7-1-3-9-41(39)51(61)47-43(49)11-5-13-45(47)55-53(63)35-19-15-31(16-20-35)33-23-27-37(28-24-33)57-58-38-29-25-34(26-30-38)32-17-21-36(22-18-32)54(64)56-46-14-6-12-44-48(46)52(62)42-10-4-2-8-40(42)50(44)60/h1-30H,(H,55,63)(H,56,64)",AJDUTMFFZHIJEM-UHFFFAOYSA-N,O=C(Nc1cccc2C(=O)c3ccccc3C(=O)c12)c4ccc(cc4)c5ccc(cc5)N=Nc6ccc(cc6)c7ccc(cc7)C(=O)Nc8cccc9C(=O)c%10ccccc%10C(=O)c89,-5.716458279,0,1,G1,832.872,11.4914,243.3364,64,8,2,10,8,304,8,0,2,10,151.2,365.5246878,0.757296116,3077.458455
A-2520,Di-p-xylylene,"InChI=1S/C16H16/c1-2-14-4-3-13(1)9-10-15-5-7-16(8-6-15)12-11-14/h1-8H,9-12H2",OOLUVSIJOMLOCB-UHFFFAOYSA-N,C1Cc2ccc(CCc3ccc1cc3)cc2,-5.169478497,0,1,G1,208.304,3.5704,67.7,16,0,0,0,0,80,2,0,4,6,0,96.94243463,1.968296253,368.8964265
A-2521,Violanthrone,InChI=1S/C34H16O2/c35-33-25-7-3-1-5-17(25)19-9-11-21-22-12-10-20-18-6-2-4-8-26(18)34(36)28-16-14-24(30(22)32(20)28)23-13-15-27(33)31(19)29(21)23/h1-16H,YKSGNOMLAIJTLT-UHFFFAOYSA-N,O=C1c2ccccc2c3ccc4c5ccc6c7ccccc7C(=O)c8ccc(c9ccc1c3c49)c5c68,-5.513312746,0,1,G1,456.5,7.946,152.588,36,2,0,2,0,164,9,0,0,9,34.14,203.1658133,1.631091343,2308.747813
A-2525,Vat green 1,"InChI=1S/C36H20O4/c1-39-27-15-25-17-7-3-5-9-21(17)35(37)23-13-11-19-20-12-14-24-30-26(18-8-4-6-10-22(18)36(24)38)16-28(40-2)34(32(20)30)33(27)31(19)29(23)25/h3-16H,1-2H3",JXUKQCUPTNLTCS-UHFFFAOYSA-N,COc1cc2c3ccccc3C(=O)c4ccc5c6ccc7C(=O)c8ccccc8c9cc(OC)c(c1c5c24)c6c79,-5.599170695,0,1,G1,516.552,7.9632,165.692,40,4,0,4,2,188,9,0,0,9,52.6,226.122788,1.687231168,2468.341966
A-2526,"Alcohols, C12-15-branched and linear","InChI=1S/C12H26O/c1-3-5-6-9-12(8-4-2)10-7-11-13/h12-13H,3-11H2,1-2H3/t12-/m0/s1",YJIYBYOWBOONOU-LBPRGKRZSA-N,CCCCC[C@H](CCC)CCCO,-5.156360408,0.105426683,2,G3,186.339,3.7555,58.8598,13,1,1,1,9,80,0,0,0,0,20.23,83.54784804,3.41127851,91.12526634
A-2528,"1,1-bis(tert-butylperoxy)cyclohexane","InChI=1S/C14H28O4/c1-12(2,3)15-17-14(10-8-7-9-11-14)18-16-13(4,5)6/h7-11H2,1-6H3",HSLFISVKRDQEBY-UHFFFAOYSA-N,CC(C)(C)OOC1(CCCCC1)OOC(C)(C)C,-5.386213837,0.014691889,2,G3,260.374,4.1402,69.662,18,4,0,4,4,108,0,1,1,1,36.92,110.7904389,2.57430315,223.5000562
A-2532,"(2E,4E,6E,8E)-3,7-dimethyl-9-(2,6,6-trimethylcyclohex-1-en-1-yl)nona-2,4,6,8-tetraen-1-yl hexadecanoate","InChI=1S/C36H60O2/c1-7-8-9-10-11-12-13-14-15-16-17-18-19-25-35(37)38-30-28-32(3)23-20-22-31(2)26-27-34-33(4)24-21-29-36(34,5)6/h20,22-23,26-28H,7-19,21,24-25,29-30H2,1-6H3/b23-20+,27-26+,31-22+,32-28+",VYGQUTWHTHXGQB-FFHKNEKCSA-N,CCCCCCCCCCCCCCCC(=O)OC/C=C(C)/C=C/C=C(C)/C=C/C1=C(C)CCCC1(C)C,-5.72005506,0,1,G1,524.874,11.5425,167.397,38,2,0,2,20,216,0,0,1,1,26.3,236.333446,2.133276458,803.1988919
A-2535,(2R)-2-[4-[5-(trifluoromethyl)pyridin-2-yl]oxyphenoxy]propanoic acid,"InChI=1S/C15H12F3NO4/c1-9(14(20)21)22-11-3-5-12(6-4-11)23-13-7-2-10(8-19-13)15(16,17)18/h2-9H,1H3,(H,20,21)/t9-/m1/s1",YUVKUEAFAVKILW-SECBINFHSA-N,C[C@@H](Oc1ccc(Oc2ccc(cn2)C(F)(F)F)cc1)C(O)=O,-2.622795669,0.513491745,2,G2,327.258,3.7446,73.4808,23,4,1,8,5,122,2,0,0,2,68.65,128.8473663,2.019464302,668.616499
A-2537,"1,1-bis[(2-methylbutan-2-yl)peroxy]cyclohexane","InChI=1S/C16H32O4/c1-7-14(3,4)17-19-16(12-10-9-11-13-16)20-18-15(5,6)8-2/h7-13H2,1-6H3",IMYCVFRTNVMHAD-UHFFFAOYSA-N,CCC(C)(C)OOC1(CCCCC1)OOC(C)(C)CC,-5.460037419,0.50464406,3,G4,288.428,4.9204,78.896,20,4,0,4,8,120,0,1,1,1,36.92,123.5203231,2.617127416,258.2014596
A-2538,"1,2-Dihydro-2,2,4-trimethylquinoline, oligomers","InChI=1S/C12H15N/c1-9-8-12(2,3)13-11-7-5-4-6-10(9)11/h4-8,13H,1-3H3",ZNRLMGFXSPUZNR-UHFFFAOYSA-N,CC1=CC(C)(C)Nc2ccccc12,-5.238695804,0.472142875,4,G5,173.259,3.294,57.7947,13,1,1,1,0,68,1,0,1,2,12.03,79.4754838,2.549748831,361.1421555
A-2540,1-chlorooctane,"InChI=1S/C8H17Cl/c1-2-3-4-5-6-7-8-9/h2-8H2,1H3",CNDHHGUSRIZDSL-UHFFFAOYSA-N,CCCCCCCCCl,-5.172243789,0.34465443,2,G3,148.677,3.5857,44.096,9,0,0,1,6,56,0,0,0,0,0,63.59711206,2.595082707,37.83229392
A-2541,"2,2,4,4,6,6,8,8,10,10,12,12-dodecamethyl-3,5,7,9,11-pentaoxa-2,4,6,8,10,12-hexasilatridecane","InChI=1S/C14H42O5Si6/c1-20(2,3)15-22(7,8)17-24(11,12)19-25(13,14)18-23(9,10)16-21(4,5)6/h1-14H3",ADANNTOYRVPQLJ-UHFFFAOYSA-N,C[Si](C)(C)O[Si](C)(C)O[Si](C)(C)O[Si](C)(C)O[Si](C)(C)O[Si](C)(C)C,-5.661813632,0,1,G1,459.001,5.5464,122.045,25,5,0,11,10,152,0,0,0,0,46.15,162.5704334,5.012260943,399.9737347
A-2542,"2,2-bis[(sulfanyloxy)methyl]butyl phosphinite 1,5-bis[2-methyl-3-(sulfanyloxy)-2-[(sulfanyloxy)methyl]propyl] pentanedioate","InChI=1S/C15H28O8S4.C6H15O3PS2/c1-14(8-20-24,9-21-25)6-18-12(16)4-3-5-13(17)19-7-15(2,10-22-26)11-23-27;1-2-6(3-7-10,4-8-11)5-9-12/h24-27H,3-11H2,1-2H3;11-12H,2-5,10H2,1H3",BTOXUEYJVDLLSS-UHFFFAOYSA-N,CCC(COP)(COS)COS.CC(COS)(COS)COC(=O)CCCC(=O)OCC(C)(COS)COS,-5.84194731,0,1,G1,694.94,4.6136,169.997,39,17,6,18,23,234,0,0,0,0,117.21,267.9898645,0,572.1546785
A-2543,Tetra(10B)boron carbide,InChI=1S/CB4/c2-1-3(2)5(1)4(1)2,INAHAJYZKVIDIZ-UHFFFAOYSA-N,B12B3B4B1C234,-4.742403021,0.571333752,2,G2,55.259,-1.3084,25.709,5,0,0,4,0,16,0,4,4,4,0,31.938631,2.711083506,106.2171655
A-2544,"2-(2H-1,2,3-benzotriazol-2-yl)-4-(2,4,4-trimethylpentan-2-yl)phenol","InChI=1S/C20H25N3O/c1-19(2,3)13-20(4,5)14-10-11-18(24)17(12-14)23-21-15-8-6-7-9-16(15)22-23/h6-12,24H,13H2,1-5H3",IYAZLDLPUNDVAG-UHFFFAOYSA-N,CC(C)(C)CC(C)(C)c1ccc(O)c(c1)n2nc3ccccc3n2,-5.509793728,1.349485002,2,G2,323.44,4.8399,97.6278,24,4,1,4,3,126,3,0,0,3,50.94,142.6792675,2.058800388,838.9665006
A-2545,"2-(2H-1,2,3-benzotriazol-2-yl)-4-methylphenol","InChI=1S/C13H11N3O/c1-9-6-7-13(17)12(8-9)16-14-10-4-2-3-5-11(10)15-16/h2-8,17H,1H3",MCPKSFINULVDNX-UHFFFAOYSA-N,Cc1ccc(O)c(c1)n2nc3ccccc3n2,-5.352666728,0.380976948,2,G3,225.251,2.43452,65.2668,17,4,1,4,1,84,3,0,0,3,50.94,98.12467273,2.231574637,654.9473648
A-2546,"2-[(2-{[3-(3,5-di-tert-butyl-4-hydroxyphenyl)propanoyl]oxy}ethyl)sulfanyl]ethyl 3-(3,5-di-tert-butyl-4-hydroxyphenyl)propanoate","InChI=1S/C38H58O6S/c1-35(2,3)27-21-25(22-28(33(27)41)36(4,5)6)13-15-31(39)43-17-19-45-20-18-44-32(40)16-14-26-23-29(37(7,8)9)34(42)30(24-26)38(10,11)12/h21-24,41-42H,13-20H2,1-12H3",VFBJXXJYHWLXRM-UHFFFAOYSA-N,CC(C)(C)c1cc(CCC(=O)OCCSCCOC(=O)CCc2cc(c(O)c(c2)C(C)(C)C)C(C)(C)C)cc(c1O)C(C)(C)C,-5.808172472,0,1,G1,642.943,8.6728,186.8986,45,7,2,7,12,252,2,0,0,2,93.06,276.2387045,1.753534383,1144.197283
A-2547,2-[2-(2-{[3-(3-tert-butyl-4-hydroxy-5-methylphenyl)propanoyl]oxy}ethoxy)ethoxy]ethyl 3-(3-tert-butyl-4-hydroxy-5-methylphenyl)propanoate,"InChI=1S/C34H50O8/c1-23-19-25(21-27(31(23)37)33(3,4)5)9-11-29(35)41-17-15-39-13-14-40-16-18-42-30(36)12-10-26-20-24(2)32(38)28(22-26)34(6,7)8/h19-22,37-38H,9-18H2,1-8H3",QSRJVOOOWGXUDY-UHFFFAOYSA-N,Cc1cc(CCC(=O)OCCOCCOCCOC(=O)CCc2cc(C)c(O)c(c2)C(C)(C)C)cc(c1O)C(C)(C)C,-5.768464941,0.49148333,2,G3,586.766,5.99464,163.2856,42,8,2,8,15,234,2,0,0,2,111.52,250.8829165,1.529951853,1093.993903
A-2548,2-benzoyl-5-(octyloxy)phenol,"InChI=1S/C21H26O3/c1-2-3-4-5-6-10-15-24-18-13-14-19(20(22)16-18)21(23)17-11-8-7-9-12-17/h7-9,11-14,16,22H,2-6,10,15H2,1H3",QUAMTGJKVDWJEQ-UHFFFAOYSA-N,CCCCCCCCOc1ccc(c(O)c1)C(=O)c2ccccc2,-5.513798048,1.5,2,G2,326.436,5.3625,96.8523,24,3,1,3,10,128,2,0,0,2,46.53,143.8422774,1.847847452,634.7870462
A-2549,2-butyloctan-1-ol,"InChI=1S/C12H26O/c1-3-5-7-8-10-12(11-13)9-6-4-2/h12-13H,3-11H2,1-2H3",XMVBHZBLHNOQON-UHFFFAOYSA-N,CCCCCCC(CO)CCCC,-5.270303761,0,1,G1,186.339,3.7555,58.8598,13,1,1,1,9,80,0,0,0,0,20.23,83.54784804,3.253702897,91.12526634
A-2550,2-decyltetradecan-1-ol,"InChI=1S/C24H50O/c1-3-5-7-9-11-13-14-16-18-20-22-24(23-25)21-19-17-15-12-10-8-6-4-2/h24-25H,3-23H2,1-2H3",CAYHVMBQBLYQMT-UHFFFAOYSA-N,CCCCCCCCCCCCC(CO)CCCCCCCCCC,-5.549815883,0,1,G1,354.663,8.4367,114.2638,25,1,1,1,21,152,0,0,0,0,20.23,159.9271534,3.276407751,226.1355048
A-2551,2-dodecylhexadecan-1-ol,"InChI=1S/C28H58O/c1-3-5-7-9-11-13-15-16-18-20-22-24-26-28(27-29)25-23-21-19-17-14-12-10-8-6-4-2/h28-29H,3-27H2,1-2H3",DEMBLPGWNXUBIQ-UHFFFAOYSA-N,CCCCCCCCCCCCCCC(CO)CCCCCCCCCCCC,-5.613599775,0,1,G1,410.771,9.9971,132.7318,29,1,1,1,25,176,0,0,0,0,20.23,185.3869219,3.266926026,275.4873867
A-2552,2-ethyl-1-{[(2-ethylhexyl)oxy]methoxy}hexane,"InChI=1S/C17H36O2/c1-5-9-11-16(7-3)13-18-15-19-14-17(8-4)12-10-6-2/h16-17H,5-15H2,1-4H3",QPIWJVQXEMCELO-UHFFFAOYSA-N,CCCCC(CC)COCOCC(CC)CCCC,-5.435323474,0,1,G1,272.473,5.4099,83.383,19,2,0,2,14,116,0,0,0,0,18.46,120.8054153,3.497669211,152.645
A-2553,2-hexyldecan-1-ol,"InChI=1S/C16H34O/c1-3-5-7-9-10-12-14-16(15-17)13-11-8-6-4-2/h16-17H,3-15H2,1-2H3",XULHFMYCBKQGEE-UHFFFAOYSA-N,CCCCCCCCC(CO)CCCCCC,-5.384616815,0,1,G1,242.447,5.3159,77.3278,17,1,1,1,13,104,0,0,0,0,20.23,109.0076165,3.284155888,133.4868683
A-2554,"2-tert-butyl-6-(5-chloro-2H-1,2,3-benzotriazol-2-yl)-4-methylphenol","InChI=1S/C17H18ClN3O/c1-10-7-12(17(2,3)4)16(22)15(8-10)21-19-13-6-5-11(18)9-14(13)20-21/h5-9,22H,1-4H3",OCWYEMOEOGEQAN-UHFFFAOYSA-N,Cc1cc(n2nc3ccc(Cl)cc3n2)c(O)c(c1)C(C)(C)C,-5.499417627,1.198970004,2,G2,315.804,4.38542,88.9768,22,4,1,5,1,114,3,0,0,3,50.94,133.8877074,2.235872867,862.2019334
A-2555,2-tert-butyl-6-[(3-tert-butyl-5-ethyl-2-hydroxyphenyl)methyl]-4-ethylphenol,"InChI=1S/C25H36O2/c1-9-16-11-18(22(26)20(13-16)24(3,4)5)15-19-12-17(10-2)14-21(23(19)27)25(6,7)8/h11-14,26-27H,9-10,15H2,1-8H3",GPNYZBKIGXGYNU-UHFFFAOYSA-N,CCc1cc(Cc2cc(CC)cc(c2O)C(C)(C)C)c(O)c(c1)C(C)(C)C,-5.566509378,1.566561093,2,G2,368.561,6.4084,115.1756,27,2,2,2,4,148,2,0,0,2,40.46,164.8212123,2.635012119,748.1833422
A-2556,2-tetradecyloctadecan-1-ol,"InChI=1S/C32H66O/c1-3-5-7-9-11-13-15-17-18-20-22-24-26-28-30-32(31-33)29-27-25-23-21-19-16-14-12-10-8-6-4-2/h32-33H,3-31H2,1-2H3",RTXVDAJGIYOHFY-UHFFFAOYSA-N,CCCCCCCCCCCCCCCCC(CO)CCCCCCCCCCCCCC,-5.66920434,0,1,G1,466.879,11.5575,151.1998,33,1,1,1,29,200,0,0,0,0,20.23,210.8466903,3.25767326,326.4650059
A-2559,3-octadecyl-1-{3-[(octadecylcarbamoyl)amino]propyl}urea,"InChI=1S/C41H84N4O2/c1-3-5-7-9-11-13-15-17-19-21-23-25-27-29-31-33-36-42-40(46)44-38-35-39-45-41(47)43-37-34-32-30-28-26-24-22-20-18-16-14-12-10-8-6-4-2/h3-39H2,1-2H3,(H2,42,44,46)(H2,43,45,47)",UZXKVMHAGOJYHP-UHFFFAOYSA-N,CCCCCCCCCCCCCCCCCCNC(=O)NCCCNC(=O)NCCCCCCCCCCCCCCCCCC,-5.822918943,0,1,G1,665.149,12.4979,206.5118,47,2,4,6,38,280,0,0,0,0,82.26,293.8594285,3.244683697,578.565612
A-2561,4-amino-N-(2-ethylhexyl)benzene-1-sulfonamide,"InChI=1S/C14H24N2O2S/c1-3-5-6-12(4-2)11-16-19(17,18)14-9-7-13(15)8-10-14/h7-10,12,16H,3-6,11,15H2,1-2H3",HHEXVLXMZIVFSS-UHFFFAOYSA-N,CCCCC(CC)CN[S](=O)(=O)c1ccc(N)cc1,-5.453967767,0,1,G1,284.425,2.7635,79.3489,19,3,2,5,8,108,1,0,0,1,72.19,116.0014688,2.61363601,468.7242609
A-2563,"5-tert-butyl-2-[5-(5-tert-butyl-1,3-benzoxazol-2-yl)thiophen-2-yl]-1,3-benzoxazole","InChI=1S/C26H26N2O2S/c1-25(2,3)15-7-9-19-17(13-15)27-23(29-19)21-11-12-22(31-21)24-28-18-14-16(26(4,5)6)8-10-20(18)30-24/h7-14H,1-6H3",AIXZBGVLNVRQSS-UHFFFAOYSA-N,CC(C)(C)c1ccc2oc(nc2c1)c3sc(cc3)c4oc5ccc(cc5n4)C(C)(C)C,-5.634046793,1,2,G2,430.573,7.9595,127.725,31,5,0,5,2,158,5,0,0,5,52.06,185.4967753,1.496510681,1300.500595
A-2564,6-[3-(decanoyloxy)-2-[(heptanoyloxy)methyl]-2-[(octanoyloxy)methyl]propoxy]-6-oxohexanoic acid,"InChI=1S/C10H20O2.C8H16O2.C6H10O4.C6H14O3.C6H12O2/c1-2-3-4-5-6-7-8-9-10(11)12;1-2-3-4-5-6-7-8(9)10;7-5(8)3-1-2-4-6(9)10;1-2-6(3-7,4-8)5-9;1-2-3-4-5-6(7)8/h2-9H2,1H3,(H,11,12);2-7H2,1H3,(H,9,10);1-4H2,(H,7,8)(H,9,10);7-9H,2-5H2,1H3;2-5H2,1H3,(H,7,8)",YCGWUEYSZNACHN-UHFFFAOYSA-N,CCCCCCCCCC(O)=O.CCCCCCCC(O)=O.CCCCCC(O)=O.CCC(CO)(CO)CO.OC(=O)CCCCC(O)=O,-5.853064556,0,1,G1,712.959,7.3702,190.7564,49,8,8,13,27,294,0,0,0,0,247.19,294.6970302,-1.66E-07,719.7083335
A-2565,Pigment Red 224,InChI=1S/C24H8O6/c25-21-13-5-1-9-10-2-6-15-20-16(24(28)30-23(15)27)8-4-12(18(10)20)11-3-7-14(22(26)29-21)19(13)17(9)11/h1-8H,CLYVDMAATCIVBF-UHFFFAOYSA-N,O=C1OC(=O)c2ccc3c4ccc5C(=O)OC(=O)c6ccc(c7ccc1c2c37)c4c56,-5.593642663,0,1,G1,392.322,3.546,114.648,30,6,0,6,0,140,7,0,0,7,94.56,163.7351621,1.947057901,1791.045587
A-2566,"O,O,O-tris(4-nitrophenyl) thiophosphate","InChI=1S/C18H12N3O9PS/c22-19(23)13-1-7-16(8-2-13)28-31(32,29-17-9-3-14(4-10-17)20(24)25)30-18-11-5-15(6-12-18)21(26)27/h1-12H",DMRUHNJUTAJPSU-UHFFFAOYSA-N,[O-][N+](=O)c1ccc(O[P](=S)(Oc2ccc(cc2)[N+]([O-])=O)Oc3ccc(cc3)[N+]([O-])=O)cc1,-5.678834198,0,1,G1,477.347,5.1725,115.4582,32,10,0,14,9,164,3,0,0,3,157.11,184.2250825,1.889607672,1050.907242
A-2567,barium(2+) ion 4-[(E)-2-(5-chloro-4-methyl-2-sulfonatophenyl)diazen-1-yl]-3-hydroxynaphthalene-2-carboxylate,"InChI=1S/C18H13ClN2O6S.Ba/c1-9-6-15(28(25,26)27)14(8-13(9)19)20-21-16-11-5-3-2-4-10(11)7-12(17(16)22)18(23)24;/h2-8,20H,1H3,(H,23,24)(H,25,26,27);/q;+2/p-2/b21-16+;",TTXAKIMEQNUACJ-JEBHESKQSA-L,[Ba++].Cc1cc(c(N\N=C/2C(=O)C(=Cc3ccccc23)C([O-])=O)cc1Cl)[S]([O-])(=O)=O,-5.745185694,0.801029996,2,G2,556.142,0.70392,104.4989,29,8,1,11,4,144,2,0,1,3,138.79,211.0233573,3.00E-06,1190.832657
A-2568,barium(2+) ion bis(2-[(E)-2-(2-hydroxynaphthalen-1-yl)diazen-1-yl]naphthalene-1-sulfonate),"InChI=1S/2C20H14N2O4S.Ba/c2*23-18-12-10-13-5-1-3-7-15(13)19(18)22-21-17-11-9-14-6-2-4-8-16(14)20(17)27(24,25)26;/h2*1-12,21H,(H,24,25,26);/q;;+2/p-2/b2*22-19-;",MMXGUEISHWEPDM-JBLAVHSWSA-L,[Ba++].[O-][S](=O)(=O)c1c(N\N=C\2C(=O)C=Cc3ccccc23)ccc4ccccc14.[O-][S](=O)(=O)c5c(N\N=C\6C(=O)C=Cc7ccccc67)ccc8ccccc58,-5.950428144,0.759675276,3,G4,892.13,5.9312,210.8618,55,12,2,15,6,268,6,0,2,8,197.32,355.4876127,1.84E-07,2691.61354
A-2569,bis(11-methyldodecyl) phthalate,"InChI=1S/C34H58O4/c1-29(2)23-17-13-9-5-7-11-15-21-27-37-33(35)31-25-19-20-26-32(31)34(36)38-28-22-16-12-8-6-10-14-18-24-30(3)4/h19-20,25-26,29-30H,5-18,21-24,27-28H2,1-4H3",BCSGAWBQJHXXSE-UHFFFAOYSA-N,CC(C)CCCCCCCCCCOC(=O)c1ccccc1C(=O)OCCCCCCCCCCC(C)C,-5.724958732,0,1,G1,530.834,10.334,159.789,38,4,0,4,24,218,1,0,0,1,52.6,234.199917,2.134369631,663.9509339
A-2570,calcium bis[2-[(2-hydroxynaphthyl)azo]naphthalenesulphonate],"InChI=1S/2C20H14N2O4S.Ca/c2*23-18-12-10-13-5-1-3-7-15(13)19(18)22-21-17-11-9-14-6-2-4-8-16(14)20(17)27(24,25)26;/h2*1-12,21H,(H,24,25,26);/q;;+2/p-2/b2*22-19-;",AKLXUSFMCRHRNU-JBLAVHSWSA-L,[Ca++].[O-][S](=O)(=O)c1c(N\N=C\2C(=O)C=Cc3ccccc23)ccc4ccccc14.[O-][S](=O)(=O)c5c(N\N=C\6C(=O)C=Cc7ccccc67)ccc8ccccc58,-5.90030157,0,1,G1,794.88,5.9312,210.8618,55,12,2,15,6,268,6,0,2,8,197.32,345.0272401,1.84E-07,2691.61354
A-2571,diindium trioxide,InChI=1S/2In.3O/q2*+3;3*-2,PJXISJQVUVHSOJ-UHFFFAOYSA-N,[O--].[O--].[O--].[In+3].[In+3],-5.443471086,0,1,G1,277.633,-1.118,13.5675,5,0,0,5,0,24,0,0,0,0,85.5,67.62694762,0,4.854752972
A-2572,diisotridecyl adipate,"InChI=1S/C32H62O4/c1-29(2)23-17-13-9-5-7-11-15-21-27-35-31(33)25-19-20-26-32(34)36-28-22-16-12-8-6-10-14-18-24-30(3)4/h29-30H,5-28H2,1-4H3",WPUKZOKYKHYASK-UHFFFAOYSA-N,CC(C)CCCCCCCCCCOC(=O)CCCCC(=O)OCCCCCCCCCCC(C)C,-5.708288297,1.577544714,5,G4,510.844,9.967,153.168,36,4,0,4,27,214,0,0,0,0,52.6,224.6025912,3.29915876,442.5472825
A-2573,docosan-1-ol,"InChI=1S/C22H46O/c1-2-3-4-5-6-7-8-9-10-11-12-13-14-15-16-17-18-19-20-21-22-23/h23H,2-22H2,1H3",NOPFSRXAKWQILS-UHFFFAOYSA-N,CCCCCCCCCCCCCCCCCCCCCCO,-5.514028148,0,1,G1,326.609,7.8006,105.0998,23,1,1,1,20,140,0,0,0,0,20.23,147.1972692,2.921962194,170.4117611
A-2574,dodecyl 3-{[3-(dodecyloxy)-3-oxopropyl]sulfanyl}propanoate,"InChI=1S/C30H58O4S/c1-3-5-7-9-11-13-15-17-19-21-25-33-29(31)23-27-35-28-24-30(32)34-26-22-20-18-16-14-12-10-8-6-4-2/h3-28H2,1-2H3",GHKOFFNLGXMVNJ-UHFFFAOYSA-N,CCCCCCCCCCCCOC(=O)CCSCCC(=O)OCCCCCCCCCCCC,-5.711686622,0,1,G1,514.857,9.428,152.165,35,5,0,5,28,208,0,0,0,0,52.6,221.995817,3.271569857,415.6374521
A-2575,ethyl 4-[[(methylphenylamino)methylene]amino]benzoate,"InChI=1S/C17H18N2O2/c1-3-21-17(20)14-9-11-15(12-10-14)18-13-19(2)16-7-5-4-6-8-16/h4-13H,3H2,1-2H3",GNGYPJUKIKDJQT-UHFFFAOYSA-N,CCOC(=O)c1ccc(cc1)N=CN(C)c2ccccc2,-5.450777025,0,1,G1,282.343,3.6595,85.3955,21,3,0,4,5,108,2,0,0,2,41.9,124.2434314,2.028889118,606.4470515
A-2577,hexadecyl hexadecyloxy dicarbonate,"InChI=1S/C34H66O6/c1-3-5-7-9-11-13-15-17-19-21-23-25-27-29-31-37-33(35)39-40-34(36)38-32-30-28-26-24-22-20-18-16-14-12-10-8-6-4-2/h3-32H2,1-2H3",QWVBGCWRHHXMRM-UHFFFAOYSA-N,CCCCCCCCCCCCCCCCOC(=O)OOC(=O)OCCCCCCCCCCCCCCCC,-5.756557,0,1,G1,570.896,12.1704,165.49,40,6,0,6,30,238,0,0,0,0,71.06,247.4888612,3.268382566,478.5613121
A-2578,hexadecyl(trimethoxy)silane,"InChI=1S/C19H42O3Si/c1-5-6-7-8-9-10-11-12-13-14-15-16-17-18-19-23(20-2,21-3)22-4/h5-19H2,1-4H3",RSKGMYDENCAJEN-UHFFFAOYSA-N,CCCCCCCCCCCCCCCC[Si](OC)(OC)OC,-5.539863641,0,1,G1,346.628,6.3458,101.9,23,3,0,4,18,140,0,0,0,0,27.69,146.3998176,3.245766365,224.3899523
A-2579,hexanal; pentanal; propanedial,"InChI=1S/C6H12O.C5H10O.C3H4O2/c1-2-3-4-5-6-7;1-2-3-4-5-6;4-2-1-3-5/h6H,2-5H2,1H3;5H,2-4H2,1H3;2-3H,1H2",BJBMXVQYJNODIZ-UHFFFAOYSA-N,CCCCCC=O.CCCCC=O.O=CCC=O,-5.412221914,0,1,G1,258.358,2.9154,72.54,18,4,0,4,9,106,0,0,0,0,68.28,110.1412492,-1.90E-07,172.6328049
A-2580,hydrate iron potassium,InChI=1S/Fe.K.2O/q+3;+1;2*-2,UMPKMCDVBZFQOK-UHFFFAOYSA-N,[O--].[O--].[K+].[Fe+3],-5.103601915,0,1,G1,126.941,-3.2361,1.373,4,0,0,4,0,21,0,0,0,0,57,77.84816958,0,6
A-2581,hydrate lithium potassium titanium,InChI=1S/K.Li.H2O.Ti/h;;1H2;,UFWQXTAKIFGGMA-UHFFFAOYSA-N,[Li].O.[K].[Ti],-5.048911582,0,1,G1,111.921,-1.5888,15.1218,4,0,0,4,0,14,0,0,0,0,31.5,95.07549502,0,8
A-2582,icosan-1-ol,"InChI=1S/C20H42O/c1-2-3-4-5-6-7-8-9-10-11-12-13-14-15-16-17-18-19-20-21/h21H,2-20H2,1H3",BTFJIXJJCSYFAL-UHFFFAOYSA-N,CCCCCCCCCCCCCCCCCCCCO,-5.475024349,0,1,G1,298.555,7.0204,95.8658,21,1,1,1,18,128,0,0,0,0,20.23,134.467385,2.901443985,149.2213495
A-2583,manganese(3+) ion ammonium (phosphonatooxy)phosphonate,"InChI=1S/Mn.H3N.H4O7P2/c;;1-8(2,3)7-9(4,5)6/h;1H3;(H2,1,2,3)(H2,4,5,6)/q+3;;/p-3",UHHXUPJJDHEMGX-UHFFFAOYSA-K,[NH4+].[Mn+3].[O-][P]([O-])(=O)O[P]([O-])([O-])=O,-5.392552751,0,1,G1,246.918,-2.9659,22.2828,11,7,1,11,2,68,0,0,0,0,172.11,72.49538114,-3.20E-07,156.8795951
A-2584,octadecan-1-ol,"InChI=1S/C18H38O/c1-2-3-4-5-6-7-8-9-10-11-12-13-14-15-16-17-18-19/h19H,2-18H2,1H3",GLDOVTGHNKAZLK-UHFFFAOYSA-N,CCCCCCCCCCCCCCCCCCO,-5.432168875,1.479303657,2,G2,270.501,6.2402,86.6318,19,1,1,1,16,116,0,0,0,0,20.23,121.7375007,2.876696645,128.6257093
A-2586,propan-2-yl dodecanoate,"InChI=1S/C15H30O2/c1-4-5-6-7-8-9-10-11-12-13-15(16)17-14(2)3/h14H,4-13H2,1-3H3",UJPPXNXOEVDSRW-UHFFFAOYSA-N,CCCCCCCCCCCC(=O)OC(C)C,-5.38453799,0,1,G1,242.403,4.8589,73.072,17,2,0,2,11,102,0,0,0,0,26.3,107.123508,3.101643935,175.7606332
A-2587,tetracosan-1-ol,"InChI=1S/C24H50O/c1-2-3-4-5-6-7-8-9-10-11-12-13-14-15-16-17-18-19-20-21-22-23-24-25/h25H,2-24H2,1H3",TYWMIZZBOVGFOV-UHFFFAOYSA-N,CCCCCCCCCCCCCCCCCCCCCCCCO,-5.549815883,0,1,G1,354.663,8.5808,114.3338,25,1,1,1,22,152,0,0,0,0,20.23,159.9271534,2.939250071,192.1411547
A-2589,undec-3-ene,"InChI=1S/C11H22/c1-3-5-7-9-11-10-8-6-4-2/h5,7H,3-4,6,8-11H2,1-2H3/b7-5+",SDTYFWAQLSIEBH-FNORWQNLSA-N,CCCCCCC\C=C\CC,-5.188357482,0.039590623,2,G3,154.297,4.3131,52.807,11,0,0,0,7,66,0,0,0,0,0,71.69906914,2.845253181,82.03910002
A-2590,vinyl laurate,"InChI=1S/C14H26O2/c1-3-5-6-7-8-9-10-11-12-13-14(15)16-4-2/h4H,2-3,5-13H2,1H3",GLVVKKSPKXTQRB-UHFFFAOYSA-N,CCCCCCCCCCCC(=O)OC=C,-5.354799685,0,1,G1,226.36,4.594,68.133,16,2,0,2,11,94,0,0,0,0,26.3,100.0689628,3.033821057,175.5741549
A-2591,zinc(2+) ion bis((dibutylcarbamothioyl)sulfanide),"InChI=1S/2C9H19NS2.Zn/c2*1-3-5-7-10(9(11)12)8-6-4-2;/h2*3-8H2,1-2H3,(H,11,12);/q;;+2/p-2",BOXSVZNGTQTENJ-UHFFFAOYSA-L,[Zn++].CCCCN(CCCC)C([S-])=S.CCCCN(CCCC)C([S-])=S,-5.675923082,0,1,G1,474.158,5.4383,122.704,25,4,0,7,12,144,0,0,0,0,6.48,191.3797873,-3.72E-07,271.4511905