ID,Name,InChI,InChIKey,SMILES,Solubility,SD,Ocurrences,Group,MolWt,MolLogP,MolMR,HeavyAtomCount,NumHAcceptors,NumHDonors,NumHeteroatoms,NumRotatableBonds,NumValenceElectrons,NumAromaticRings,NumSaturatedRings,NumAliphaticRings,RingCount,TPSA,LabuteASA,BalabanJ,BertzCT
A-3623,2-methylbutanoic acid,"InChI=1S/C5H10O2/c1-3-4(2)5(6)7/h4H,3H2,1-2H3,(H,6,7)",WLAMNBDJUVNPJU-UHFFFAOYSA-N,CCC(C)C(O)=O,-0.355953575,0,1,G1,102.133,1.1171,27.0908,7,1,1,2,2,42,0,0,0,0,37.3,43.15477534,3.343417059,68.48040588
A-3625,diiron(3+) ion trisulfate,"InChI=1S/2Fe.3H2O4S/c;;3*1-5(2,3)4/h;;3*(H2,1,2,3,4)/q2*+3;;;/p-6",RUTXIHLAWFEWGM-UHFFFAOYSA-H,[Fe+3].[Fe+3].[O-][S]([O-])(=O)=O.[O-][S]([O-])(=O)=O.[O-][S]([O-])(=O)=O,1.041524079,0,1,G1,399.879,-4.019,31.4238,17,12,0,17,0,106,0,0,0,0,240.78,117.4728327,-4.00E-08,340.6558969
A-3629,zinc dibromide,InChI=1S/2BrH.Zn/h2*1H;/q;;+2/p-2,VNDYJBBGRKZCSX-UHFFFAOYSA-L,[Zn++].[Br-].[Br-],1.297742994,0,1,G1,225.198,-5.9945,0,3,0,0,3,0,16,0,0,0,0,0,53.27721003,0,2.754887502
A-3631,"chromium(3+) ion pentasodium bis(8-[(4-amino-6-chloro-1,3,5-triazin-2-yl)amino]-2-[(E)-2-(5-nitro-2-oxidophenyl)diazen-1-yl]-3,6-disulfonatonaphthalen-1-olate)","InChI=1S/2C19H13ClN8O10S2.Cr.5Na/c2*20-17-23-18(21)25-19(24-17)22-11-6-9(39(33,34)35)3-7-4-13(40(36,37)38)15(16(30)14(7)11)27-26-10-5-8(28(31)32)1-2-12(10)29;;;;;;/h2*1-6,29-30H,(H,33,34,35)(H,36,37,38)(H3,21,22,23,24,25);;;;;;/q;;+3;5*+1/p-8",AICVXAYCWMYBPS-UHFFFAOYSA-F,[Na+].[Na+].[Na+].[Na+].[Na+].[Cr+3].Nc1nc(Cl)nc(Nc2cc(cc3cc(c(N=Nc4cc(ccc4[O-])[N+]([O-])=O)c([O-])c23)[S]([O-])(=O)=O)[S]([O-])(=O)=O)n1.Nc5nc(Cl)nc(Nc6cc(cc7cc(c(N=Nc8cc(ccc8[O-])[N+]([O-])=O)c([O-])c67)[S]([O-])(=O)=O)[S]([O-])(=O)=O)n5,-0.494975175,0,1,G1,1384.774,-12.4165,257.1418,86,34,4,48,14,419,8,0,0,8,610.2,611.6214578,8.04E-07,4219.21287
A-3636,sodium 3-(4-methyl-2-nitrophenoxy)propanesulphonate,"InChI=1S/C10H13NO6S.Na/c1-8-3-4-10(9(7-8)11(12)13)17-5-2-6-18(14,15)16;/h3-4,7H,2,5-6H2,1H3,(H,14,15,16);/q;+1/p-1",NYUMEYVVSINMIU-UHFFFAOYSA-M,[Na+].Cc1ccc(OCCC[S]([O-])(=O)=O)c(c1)[N+]([O-])=O,0.170310359,0,1,G1,297.264,-1.77868,62.5096,19,6,0,9,6,100,1,0,0,1,109.57,132.6997282,3.24E-06,544.9509009
A-3639,"2-butyl-1,3-diazaspiro[4.4]non-1-en-4-one 2-butyl-1,3-diazaspiro[4.4]non-2-en-4-one dihydrochloride","InChI=1S/2C11H18N2O.2ClH/c2*1-2-3-6-9-12-10(14)11(13-9)7-4-5-8-11;;/h2*2-8H2,1H3,(H,12,13,14);2*1H",IIJDGRLUYMOVFN-UHFFFAOYSA-N,Cl.Cl.CCCCC1=NC2(CCCC2)C(=O)N1.CCCCC3=NC(=O)C4(CCCC4)N3,-1.019613944,0,1,G1,461.478,4.879,127.0994,30,4,2,8,6,172,0,2,4,4,82.92,192.905142,2.81E-07,651.5229735
A-3640,"trisodium 5-({4-chloro-6-[ethyl(phenyl)amino]-1,3,5-triazin-2-yl}amino)-4-hydroxy-3-[(E)-2-(2-sulfonatophenyl)diazen-1-yl]naphthalene-2,7-disulfonate","InChI=1S/C27H22ClN7O10S3.3Na/c1-2-35(16-8-4-3-5-9-16)27-31-25(28)30-26(32-27)29-19-14-17(46(37,38)39)12-15-13-21(48(43,44)45)23(24(36)22(15)19)34-33-18-10-6-7-11-20(18)47(40,41)42;;;/h3-14,33H,2H2,1H3,(H,37,38,39)(H,40,41,42)(H,43,44,45)(H,29,30,31,32);;;/q;3*+1/p-3/b34-23+;;;",LTDWIWZCTPXWKI-BGSWCMMMSA-K,[Na+].[Na+].[Na+].CCN(c1ccccc1)c2nc(Cl)nc(Nc3cc(cc4C=C(\C(=N/Nc5ccccc5[S]([O-])(=O)=O)C(=O)c34)[S]([O-])(=O)=O)[S]([O-])(=O)=O)n2,-0.266745284,0,1,G1,802.112,-6.2027,169.1145,51,17,2,24,10,250,4,0,1,5,267,363.0717599,3.00E-06,2370.804793
A-3641,zinc(2+) ion dichloride,InChI=1S/2ClH.Zn/h2*1H;/q;;+2/p-2,JIAARYAFYJHUJI-UHFFFAOYSA-L,[Cl-].[Cl-].[Zn++],0.501000636,0.147222907,2,G3,136.296,-5.9945,0,3,0,0,3,0,16,0,0,0,0,0,44.55799231,0,2.754887502
A-3642,thymidine,"InChI=1S/C10H14N2O5/c1-5-3-12(10(16)11-9(5)15)8-2-6(14)7(4-13)17-8/h3,6-8,13-14H,2,4H2,1H3,(H,11,15,16)",IQFYYKKMVGJFEH-UHFFFAOYSA-N,CC1=CN(C2CC(O)C(CO)O2)C(=O)NC1=O,-0.742062088,0,1,G1,242.231,-1.51428,57.6793,17,6,3,7,2,94,1,1,1,2,104.55,96.28954903,2.335396042,520.1629218
A-3646,"2-[(E)-2-[4-(diethylamino)phenyl]ethenyl]-1,3,3-trimethyl-3H-indol-1-ium acetate","InChI=1S/C23H29N2.C2H4O2/c1-6-25(7-2)19-15-12-18(13-16-19)14-17-22-23(3,4)20-10-8-9-11-21(20)24(22)5;1-2(3)4/h8-17H,6-7H2,1-5H3;1H3,(H,3,4)/q+1;/p-1",KEUVYXFBMUFRGG-UHFFFAOYSA-M,CCN(CC)c1ccc(cc1)C=CC2=[N+](C)c3ccccc3C2(C)C.CC([O-])=O,-0.960418782,0,1,G1,392.543,4.0084,120.0374,29,3,0,4,5,154,2,0,1,3,46.38,174.3640253,6.87E-07,900.6755277
A-3647,"2-[2-[4-(diethylamino)phenyl]vinyl]-1,3,3-trimethyl-3H-indolium dihydrogen phosphate","InChI=1S/C23H29N2.H3O4P/c1-6-25(7-2)19-15-12-18(13-16-19)14-17-22-23(3,4)20-10-8-9-11-21(20)24(22)5;1-5(2,3)4/h8-17H,6-7H2,1-5H3;(H3,1,2,3,4)/q+1;/p-1",DNQYATSEPGGRFT-UHFFFAOYSA-M,CCN(CC)c1ccc(cc1)C=CC2=[N+](C)c3ccccc3C2(C)C.O[P](O)([O-])=O,-1.000489568,0,1,G1,430.485,3.6916,121.4005,30,3,2,7,5,162,2,0,1,3,86.84,178.6106971,5.75E-07,962.6878914
A-3648,disodium 4-[(3-carboxylato-2-hydroxynaphthalen-1-yl)methyl]-3-hydroxynaphthalene-2-carboxylate,"InChI=1S/C23H16O6.Na/c24-20-16(14-7-3-1-5-12(14)9-18(20)22(26)27)11-17-15-8-4-2-6-13(15)10-19(21(17)25)23(28)29;/h1-10,24-25H,11H2,(H,26,27)(H,28,29);",MQIPLTYHZCWJRA-UHFFFAOYSA-N,[Na].OC(=O)c1cc2ccccc2c(Cc3c(O)c(cc4ccccc34)C(O)=O)c1O,-0.980758883,0,1,G1,411.365,4.0106,113.7042,30,4,4,7,4,145,4,0,0,4,115.06,192.8600316,2.56E-06,1211.07769
A-3650,"diammonium 2,3-dihydroxybutanedioate","InChI=1S/C4H6O6.2H3N/c5-1(3(7)8)2(6)4(9)10;;/h1-2,5-6H,(H,7,8)(H,9,10);2*1H3/t1-,2-;;/m1../s1",NGPGDYLVALNKEG-OLXYHTOASA-N,N.N.O[C@H]([C@@H](O)C(O)=O)C(O)=O,0.366276763,0,1,G1,184.148,-1.7986,37.3294,12,6,6,8,3,74,0,0,0,0,185.06,67.60555731,-4.05E-07,141.6270751
A-3651,5-(aminomethyl)-2-methylpyrimidin-4-amine,"InChI=1S/C6H10N4/c1-4-9-3-5(2-7)6(8)10-4/h3H,2,7H2,1H3,(H2,8,9,10)",OZOHTVFCSKFMLL-UHFFFAOYSA-N,Cc1ncc(CN)c(N)n1,0.490306563,0,1,G1,138.174,-0.17408,39.0728,10,4,2,4,1,54,1,0,0,1,77.82,59.2803647,3.069982715,233.1894674
A-3652,manganese(2+) dinitrate,InChI=1S/Mn.2NO3/c;2*2-1(3)4/q+2;2*-1,MIVBAHRSNUNMPP-UHFFFAOYSA-N,[Mn++].[O-][N+]([O-])=O.[O-][N+]([O-])=O,1.377095201,0,1,G1,178.946,-0.4807,20.7228,9,6,0,9,0,53,0,0,0,0,132.4,58.77825629,-7.20E-08,69.05865003
A-3653,(3-{[3-(dimethylamino)propyl]amino}propyl)dimethylamine,"InChI=1S/C10H25N3/c1-12(2)9-5-7-11-8-6-10-13(3)4/h11H,5-10H2,1-4H3",BXYVQNNEFZOBOZ-UHFFFAOYSA-N,CN(C)CCCNCCCN(C)C,0.355850804,0.156276894,2,G3,187.331,0.4794,59.2117,13,3,1,3,8,80,0,0,0,0,18.51,83.09325958,2.916362187,90.34298056
A-3654,"2-(2,4-diaminophenoxy)ethan-1-ol dihydrochloride","InChI=1S/C8H12N2O2.2ClH/c9-6-1-2-8(7(10)5-6)12-4-3-11;;/h1-2,5,11H,3-4,9-10H2;2*1H",VXYWXJXCQSDNHX-UHFFFAOYSA-N,[H+].[H+].[Cl-].[Cl-].Nc1ccc(OCCO)c(N)c1,0.246159297,0,1,G1,241.118,-5.5449,50.0716,14,4,3,6,3,82,1,0,0,1,81.5,98.02463097,-1.80E-07,280.2152649
A-3655,"trisodium 2-hydroxypropane-1,2,3-tricarboxylate","InChI=1S/C6H8O7.3Na/c7-3(8)1-6(13,5(11)12)2-4(9)10;;;/h13H,1-2H2,(H,7,8)(H,9,10)(H,11,12);;;/q;3*+1/p-3",HRXKRNGNAMMEHJ-UHFFFAOYSA-K,[Na+].[Na+].[Na+].OC(CC([O-])=O)(CC([O-])=O)C([O-])=O,0.216653091,0.097868452,2,G3,258.069,-14.2406,29.2048,16,7,1,10,5,74,0,0,0,0,140.62,157.4656618,-2.40E-07,238.5067184
A-3657,aluminium(3+) ion trinitrate,InChI=1S/Al.3NO3.9H2O/c;3*2-1(3)4;;;;;;;;;/h;;;;9*1H2/q+3;3*-1;;;;;;;;;,SWCIQHXIXUMHKA-UHFFFAOYSA-N,O.O.O.O.O.O.O.O.O.[Al+3].[O-][N+]([O-])=O.[O-][N+]([O-])=O.[O-][N](=O)=O,-0.940813194,0,1,G1,375.129,-8.5204,69.3624,22,9,0,22,0,144,0,0,0,0,482.1,128.790009,-4.09E-09,115.8819331
A-3658,sodium fluoride,InChI=1S/FH.Na/h1H;/q;+1/p-1,PUZPDOWCWNUUKD-UHFFFAOYSA-M,[F-].[Na+],-0.002187262,0,1,G1,41.988,-5.992,0,2,0,0,2,0,8,0,0,0,0,0,34.51054035,0,2
A-3661,1-phenylethanamine,"InChI=1S/C8H11N/c1-7(9)8-5-3-2-4-6-8/h2-7H,9H2,1H3/t7-/m0/s1",RQEUFEKYXDPUSK-ZETCQYMHSA-N,C[C@H](N)c1ccccc1,-0.460192409,0,1,G1,121.183,1.7063,39.0444,9,1,1,1,1,48,1,0,0,1,26.02,55.50117805,2.848234051,167.1823264
A-3665,sodium 4-(methoxycarbonyl)phenolate,"InChI=1S/C8H8O3.Na/c1-11-8(10)6-2-4-7(9)5-3-6;/h2-5,9H,1H3;/q;+1/p-1",PESXGULMKCKJCC-UHFFFAOYSA-M,[Na+].COC(=O)c1ccc([O-])cc1,0.380300188,0,1,G1,174.131,-2.4492,37.2275,12,3,0,4,1,58,1,0,0,1,49.36,92.64398805,1.21E-06,255.5104123
A-3666,sodium hydrogen 2-aminopentanedioate,"InChI=1S/C5H9NO4.Na/c6-3(5(9)10)1-2-4(7)8;/h3H,1-2,6H2,(H,7,8)(H,9,10);/q;+1/p-1",LPUQAYUQRXPFSQ-UHFFFAOYSA-M,[Na+].NC(CCC(O)=O)C([O-])=O,0.391961629,0.126118026,3,G5,169.112,-5.0676,29.8522,11,4,2,6,4,58,0,0,0,0,103.45,85.86382151,0,149.4178439
A-3667,sodium azide,InChI=1S/N3.Na/c1-3-2;/q-1;+1,PXIPVTKHYLBLMZ-UHFFFAOYSA-N,[Na+].[N-]=[N+]=[N-],0.804013495,0,1,G1,65.011,-2.1299,10.077,4,0,0,4,0,16,0,0,0,0,58.7,45.71145907,0,24.26466251
A-3668,manganese(2+) ion disodium 2-({2-[bis(carboxylatomethyl)amino]ethyl}(carboxylatomethyl)amino)acetate,"InChI=1S/C10H16N2O8.Mn.2Na/c13-7(14)3-11(4-8(15)16)1-2-12(5-9(17)18)6-10(19)20;;;/h1-6H2,(H,13,14)(H,15,16)(H,17,18)(H,19,20);;;/q;+2;2*+1/p-4",ZQHKAIDDHTYINE-UHFFFAOYSA-J,[Na+].[Na+].[Mn++].[O-]C(=O)CN(CCN(CC([O-])=O)CC([O-])=O)CC([O-])=O,0.024802502,0,1,G1,389.13,-13.4045,52.908,23,10,0,13,11,119,0,0,0,0,167,186.7888403,-6.02E-07,331.0572441
A-3671,diammonium oxalate,"InChI=1S/C2H2O4.2H3N/c3-1(4)2(5)6;;/h(H,3,4)(H,5,6);2*1H3",VBIXEXWLHSRNKB-UHFFFAOYSA-N,[NH4+].[NH4+].[O-]C(=O)C([O-])=O,-0.472581501,0.136056158,4,G5,124.096,-2.7614,21.9836,8,4,2,6,0,50,0,0,0,0,153.26,45.28720557,-1.25E-07,78.03910002
A-3673,(2S)-2-amino-4-carbamoylbutanoic acid,"InChI=1S/C5H10N2O3/c6-3(5(9)10)1-2-4(7)8/h3H,1-2,6H2,(H2,7,8)(H,9,10)/t3-/m0/s1",ZDXPYRJPNDTMRX-VKHMYHEASA-N,N[C@@H](CCC(N)=O)C(O)=O,-0.548311419,0.031782032,2,G3,146.146,-1.3362,34.0396,10,3,3,5,4,58,0,0,0,0,106.41,57.99607883,3.49072966,145.8284896
A-3674,(2S)-2-amino-3-methylpentanoic acid,"InChI=1S/C6H13NO2/c1-3-4(2)5(7)6(8)9/h4-5H,3,7H2,1-2H3,(H,8,9)/t4-,5-/m0/s1",AGPKZVBTJJNPAG-WHFBIAKZSA-N,CC[C@H](C)[C@H](N)C(O)=O,-0.502953857,0.041709149,2,G3,131.175,0.4444,35.0662,9,2,2,3,3,54,0,0,0,0,63.32,54.85960815,3.716136771,103.2309827
A-3675,"2-[(2H-1,3-benzodioxol-5-yl)amino]ethan-1-ol hydrochloride","InChI=1S/C9H11NO3.ClH/c11-4-3-10-7-1-2-8-9(5-7)13-6-12-8;/h1-2,5,10-11H,3-4,6H2;1H",LMONVTDNVNEAQG-UHFFFAOYSA-N,[H+].[Cl-].OCCNc1ccc2OCOc2c1,0.272897501,0,1,G1,217.652,-2.064,49.2525,14,4,2,5,3,78,1,0,1,2,50.72,89.72947633,9.80E-07,311.4089728
A-3678,"2,5-dihydrofuran-2,5-dione",InChI=1S/C4H2O3/c5-3-1-2-4(6)7-3/h1-2H,FPYJFEHAWHCUMM-UHFFFAOYSA-N,O=C1OC(=O)C=C1,0.618115807,0.005790936,2,G3,98.057,-0.374,20.239,7,3,0,3,0,36,0,0,1,1,43.37,39.57523261,2.759543614,129.013897
A-3683,disodium carbonate,"InChI=1S/CH2O3.2Na/c2-1(3)4;;/h(H2,2,3,4);;/q;2*+1/p-2",CDBYLPFSWZWCQE-UHFFFAOYSA-L,[Na+].[Na+].[O-]C([O-])=O,0.581124668,0.139511215,2,G3,105.988,-8.439,5.396,6,3,0,5,0,24,0,0,0,0,63.19,79.31603988,-4.50E-08,31.77443751
A-3685,"disodium 7-({bis[(2-hydroxyethyl)amino]-1,3,5-triazin-2-yl}amino)-4-hydroxy-3-[(E)-2-{4-[(E)-2-(4-sulfonatophenyl)diazen-1-yl]phenyl}diazen-1-yl]naphthalene-2-sulfonate","InChI=1S/C29H28N10O9S2.2Na/c40-13-11-30-27-33-28(31-12-14-41)35-29(34-27)32-21-7-10-23-17(15-21)16-24(50(46,47)48)25(26(23)42)39-38-19-3-1-18(2-4-19)36-37-20-5-8-22(9-6-20)49(43,44)45;;/h1-10,15-16,38,40-41H,11-14H2,(H,43,44,45)(H,46,47,48)(H3,30,31,32,33,34,35);;/q;2*+1/p-2/b37-36?,39-25-;;",GCRNVICBLHQKTF-FOZHKXGMSA-L,[Na+].[Na+].OCCNc1nc(NCCO)nc(Nc2ccc3C(=O)C(=N/Nc4ccc(cc4)N=Nc5ccc(cc5)[S]([O-])(=O)=O)\C(=Cc3c2)[S]([O-])(=O)=O)n1,-0.28369802,0,1,G1,768.702,-3.6984,178.7883,52,19,6,23,14,260,4,0,1,5,295.8,340.8314784,3.64E-06,2197.048039
A-3687,2-methyloxirane,"InChI=1S/C3H6O/c1-3-2-4-3/h3H,2H2,1H3/t3-/m0/s1",GOOHAUXETOMSMM-VKHMYHEASA-N,C[C@H]1CO1,0.838033384,0,1,G1,58.08,0.4051,15.414,4,1,0,1,0,24,0,1,1,1,12.53,25.57684933,2.171098318,22.46439345
A-3688,"disodium 2,2'-(azodi-p-phenylene)bis[6-methylbenzothiazole-7-sulphonate]","InChI=1S/C28H20N4O6S4.2Na/c1-15-3-13-21-23(25(15)41(33,34)35)39-27(29-21)17-5-9-19(10-6-17)31-32-20-11-7-18(8-12-20)28-30-22-14-4-16(2)26(24(22)40-28)42(36,37)38;;/h3-14H,1-2H3,(H,33,34,35)(H,36,37,38);;/q;2*+1/p-2",GRUAQEWEHJNSDG-UHFFFAOYSA-L,[Na+].[Na+].Cc1ccc2nc(sc2c1[S]([O-])(=O)=O)c3ccc(cc3)N=Nc4ccc(cc4)c5sc6c(ccc(C)c6[S]([O-])(=O)=O)n5,-1.222309624,0,1,G1,680.722,1.08844,159.6884,44,12,0,16,6,212,6,0,0,6,164.9,304.9467706,2.21E-06,2106.398436
A-3690,1-[2-(2-butoxy-1-methylethoxy)-1-methylethoxy]propan-1-ol,"InChI=1S/C13H28O4/c1-4-15-7-5-6-13(3)17-9-8-16-11-12(2)10-14/h12-14H,4-11H2,1-3H3",QVIFIIFBFORLSL-UHFFFAOYSA-N,CCOCCCC(C)OCCOCC(C)CO,-0.790860844,0,1,G1,248.363,1.8532,68.2098,17,4,1,4,12,104,0,0,0,0,47.92,105.2534258,3.18373699,152.3548886
A-3691,(1R)-1-phenylethan-1-amine,"InChI=1S/C8H11N/c1-7(9)8-5-3-2-4-6-8/h2-7H,9H2,1H3",RQEUFEKYXDPUSK-UHFFFAOYSA-N,CC(N)c1ccccc1,-0.481381708,0.010594649,2,G3,121.183,1.7063,39.0444,9,1,1,1,1,48,1,0,0,1,26.02,55.50117805,2.848234051,167.1823264
A-3692,dipotassium zinc 2-[2-[bis(2-oxido-2-oxoethyl)amino]ethyl-(2-oxido-2-oxoethyl)amino]acetate,"InChI=1S/C10H16N2O8.2K.Zn/c13-7(14)3-11(4-8(15)16)1-2-12(5-9(17)18)6-10(19)20;;;/h1-6H2,(H,13,14)(H,15,16)(H,17,18)(H,19,20);;;/q;2*+1;+2/p-4",HALPFWFCTAYLEL-UHFFFAOYSA-J,[K+].[K+].[Zn++].[O-]C(=O)CN(CCN(CC([O-])=O)CC([O-])=O)CC([O-])=O,0.237458201,0,1,G1,431.798,-13.4045,52.908,23,10,0,13,11,114,0,0,0,0,167,230.0948782,-6.02E-07,331.0572441
A-3694,2-[(butylcarbamoyl)oxy]ethyl prop-2-enoate,"InChI=1S/C10H17NO4/c1-3-5-6-11-10(13)15-8-7-14-9(12)4-2/h4H,2-3,5-8H2,1H3,(H,11,13)",FLKHVLRENDBIDB-UHFFFAOYSA-N,CCCCNC(=O)OCCOC(=O)C=C,-1.634840597,0,1,G1,215.249,1.2419,55.4147,15,4,1,5,7,86,0,0,0,0,64.63,89.43412387,3.30694377,215.467928
A-3696,(4-chlorophenyl)hydrazine,"InChI=1S/C6H7ClN2.ClH/c7-5-1-3-6(9-8)4-2-5;/h1-4,9H,8H2;1H",YQVZREHUWCCHHX-UHFFFAOYSA-N,[H+].[Cl-].NNc1ccc(Cl)cc1,-1.563665466,0,1,G1,179.05,-1.2579,40.3741,10,2,2,4,1,56,1,0,0,1,38.05,72.23244987,0,190.2787008
A-3700,"3,5-dimethylaniline","InChI=1S/C8H11N/c1-6-3-7(2)5-8(9)4-6/h3-5H,9H2,1-2H3",MKARNSWMMBGSHX-UHFFFAOYSA-N,Cc1cc(C)cc(N)c1,-1.402200462,0,1,G1,121.183,1.88564,40.3284,9,1,1,1,0,48,1,0,0,1,26.02,55.50117805,3.16567031,165.3298402
A-3701,Sodium; cobalt(3+); 1-[(2-oxido-5-sulfamoylphenyl)diazenyl]naphthalen-2-olate,"InChI=1S/2C16H13N3O4S.Co.Na/c2*17-24(22,23)11-6-8-14(20)13(9-11)18-19-16-12-4-2-1-3-10(12)5-7-15(16)21;;/h2*1-9,20-21H,(H2,17,22,23);;/q;;+3;+1/p-4",PHQDZULYJVQNFM-UHFFFAOYSA-J,[Na+].[Co+3].N[S](=O)(=O)c1ccc([O-])c(c1)N=Nc2c([O-])ccc3ccccc23.N[S](=O)(=O)c4ccc([O-])c(c4)N=Nc5c([O-])ccc6ccccc56,-2.202203848,0,1,G1,764.619,1.1011,169.6624,50,12,2,18,6,250,6,0,0,6,262,317.9771029,2.60E-07,2311.075864
A-3702,"1,3,3-trimethyl-5-oxocyclohexane-1-carbonitrile","InChI=1S/C10H15NO/c1-9(2)4-8(12)5-10(3,6-9)7-11/h4-6H2,1-3H3",JJDFVIDVSCYKDS-UHFFFAOYSA-N,CC1(C)CC(=O)CC(C)(C1)C#N,-1.54049772,0.00673727,2,G3,165.236,2.29548,46.359,12,2,0,2,0,66,0,1,1,1,40.86,73.57200069,2.855361387,249.0544192
A-3703,4-(4-chlorophenyl)piperidin-4-ol,"InChI=1S/C11H14ClNO.ClH/c12-10-3-1-9(2-4-10)11(14)5-7-13-8-6-11;/h1-4,13-14H,5-8H2;1H",PXAJMBHRLGKPQV-UHFFFAOYSA-N,[H+].[Cl-].OC1(CCNCC1)c2ccc(Cl)cc2,-1.720777531,0,1,G1,248.153,-0.9725,58.5645,15,2,2,4,1,84,1,1,1,2,32.26,102.5355363,1.12E-06,312.2655306
A-3706,amino(phenyl)acetic acid,"InChI=1S/C8H9NO2/c9-7(8(10)11)6-4-2-1-3-5-6/h1-5,7H,9H2,(H,10,11)/t7-/m1/s1",ZGUNAGUHMKGQNY-SSDOTTSWSA-N,[NH3+][C@@H](C([O-])=O)c1ccccc1,-1.508278406,0,1,G1,151.165,-1.2805,37.0781,11,2,1,3,2,58,1,0,0,1,67.77,64.4569339,2.85117789,245.5287877
A-3708,octan-1-amine dibutyl sulfanylphosphonate,"InChI=1S/C8H19N.C8H19O3PS/c1-2-3-4-5-6-7-8-9;1-3-5-7-10-12(9,13)11-8-6-4-2/h2-9H2,1H3;3-8H2,1-2H3,(H,9,13)",IVMOXNPAUDFORG-UHFFFAOYSA-N,CCCCCCCCN.CCCCO[P](S)(=O)OCCCC,-1.879697302,0.007731713,2,G3,355.525,5.9633,100.7429,22,4,2,6,14,136,0,0,0,0,61.55,143.1527868,0,235.5454176
A-3712,"4-amino-N-tert-butyl-5-oxo-3-(propan-2-yl)-4,5-dihydro-1H-1,2,4-triazole-1-carboxamide","InChI=1S/C10H19N5O2/c1-6(2)7-13-15(9(17)14(7)11)8(16)12-10(3,4)5/h6H,11H2,1-5H3,(H,12,16)",ORFPWVRKFLOQHK-UHFFFAOYSA-N,CC(C)C1=NN(C(=O)NC(C)(C)C)C(=O)N1N,-1.718847397,0.008861832,3,G5,241.295,0.2382,64.4091,17,6,2,7,1,96,1,0,0,1,94.94,99.57072606,3.123709495,477.8661896
A-3713,4-(4-hydroxyphenyl)butan-2-one,"InChI=1S/C10H12O2/c1-8(11)2-3-9-4-6-10(12)7-5-9/h4-7,12H,2-3H2,1H3",NJGBTKGETPDVIK-UHFFFAOYSA-N,CC(=O)CCc1ccc(O)cc1,-1.552040941,0,1,G1,164.204,1.9138,47.1088,12,2,1,2,3,64,1,0,0,1,37.3,71.84692743,2.529889074,261.6719978
A-3714,(2H)chloroform,InChI=1S/CHCl3/c2-1(3)4/h1H/i1D,HEDRZPFGACZZDS-MICDWDOJSA-N,ClC(Cl)(Cl)[2H],-1.417811305,0,1,G1,120.3841018,1.9864,21.347,4,0,0,3,0,26,0,0,0,0,0,41.05402021,3.023715784,22.36452798
A-3716,"4-amino-3,6-dichloropyridine-2-carboxylic acid","InChI=1S/C6H4Cl2N2O2/c7-3-1-2(9)4(8)5(10-3)6(11)12/h1H,(H2,9,10)(H,11,12)",NIXXQNOQHKNPEJ-UHFFFAOYSA-N,Nc1cc(Cl)nc(C(O)=O)c1Cl,-0.004250052,0.007291,2,G3,207.016,1.6688,45.6287,12,3,2,6,1,64,1,0,0,1,76.21,77.91817222,3.373859011,340.5651247
A-3720,"2,2'-({4-[(2-hydroxyethyl)amino]-3-nitrophenyl}imino)diethanol","InChI=1S/C12H19N3O5/c16-6-3-13-11-2-1-10(9-12(11)15(19)20)14(4-7-17)5-8-18/h1-2,9,13,16-18H,3-8H2",MIWUTEVJIISHCP-UHFFFAOYSA-N,OCCNc1ccc(cc1[N+]([O-])=O)N(CCO)CCO,-1.795385572,0,1,G1,285.3,-0.21,75.0565,20,7,4,8,9,112,1,0,0,1,119.1,115.9664286,3.034674229,435.1010128
A-3721,aluminium(3+) ion potassium tetrafluoride,InChI=1S/Al.FH.K/h;1H;/q+3;;+1/p-1,YPYRDLOVFOAQIR-UHFFFAOYSA-M,[F-].[Al+3].[K+],-1.269901072,0,1,G1,85.078,-6.3728,5.754,3,0,0,3,0,8,0,0,0,0,0,71.89321841,0,4.754887502
A-3723,tributoxyalumane,"InChI=1S/3C4H9O.Al/c3*1-2-3-4-5;/h3*2-4H2,1H3;/q3*-1;+3",MYWQGROTKMBNKN-UHFFFAOYSA-N,[Al+3].CCCC[O-].CCCC[O-].CCCC[O-],-1.737335476,0.106708547,3,G5,246.327,0.0596,65.079,16,3,0,4,6,96,0,0,0,0,69.18,112.0214908,-6.55E-08,53.01955001
A-3725,"2,4-dichlorophenol","InChI=1S/C6H4Cl2O/c7-4-1-2-6(9)5(8)3-4/h1-3,9H",HFZWRUODUSTPEG-UHFFFAOYSA-N,Oc1ccc(Cl)cc1Cl,-1.558983084,0.018491783,2,G3,163.003,2.699,38.1268,9,1,1,3,0,48,1,0,0,1,20.23,62.83216933,3.17167803,222.2978871
A-3730,tetrasodium 8-[[4-[(4-amino-3-sulphonatophenyl)azo]-6-sulphonatonaphthyl]azo]-5-[[6-(benzoylamino)-1-hydroxy-3-sulphonato-2-naphthyl]azo]naphthalene-2-sulphonate,"InChI=1S/C43H30N8O14S4.4Na/c44-34-13-7-26(20-39(34)68(60,61)62)46-47-37-16-14-35(30-11-8-27(21-32(30)37)66(54,55)56)48-49-38-17-15-36(31-12-9-28(22-33(31)38)67(57,58)59)50-51-41-40(69(63,64)65)19-24-18-25(6-10-29(24)42(41)52)45-43(53)23-4-2-1-3-5-23;;;;/h1-22,50H,44H2,(H,45,53)(H,54,55,56)(H,57,58,59)(H,60,61,62)(H,63,64,65);;;;/q;4*+1/p-4/b47-46?,49-48?,51-41+;;;;",WSKMZXPHHJCCDK-HTWUECFASA-J,[Na+].[Na+].[Na+].[Na+].Nc1ccc(cc1[S]([O-])(=O)=O)N=Nc2ccc(N=Nc3ccc(N\N=C/4C(=O)c5ccc(NC(=O)c6ccccc6)cc5C=C4[S]([O-])(=O)=O)c7ccc(cc37)[S]([O-])(=O)=O)c8ccc(cc28)[S]([O-])(=O)=O,-2.393595358,0.334083782,2,G3,1098.951,-5.0629,244.8916,73,21,3,30,12,350,7,0,1,8,374.82,503.8422014,2.89E-06,3980.640367
A-3733,methyl 3-methylbut-2-enoate,"InChI=1S/C6H10O2/c1-5(2)4-6(7)8-3/h4H,1-3H3",FZIBCCGGICGWBP-UHFFFAOYSA-N,COC(=O)C=C(C)C,-1.414000411,0,1,G1,114.144,1.1256,31.447,8,2,0,2,1,46,0,0,0,0,26.3,49.1494259,3.701645431,109.6969429
A-3735,"Benzoic acid, 2-hydroxy-5-[[4-[[4-[[8-hydroxy-7-[[4-[(8-hydroxy-3,6-disulfo-1-naphthalenyl)azo]-2-methoxy-5-methylphenyl]azo]-3,6-disulfo-1-naphthalenyl]amino]-6-(phenylamino)-1,3,5-triazin-2-yl]amino]phenyl]azo]-, pentasodium salt","InChI=1S/C50H38N12O18S4.5Na/c1-24-14-36(41(80-2)23-35(24)59-61-38-21-32(82(71,72)73)15-25-16-33(83(74,75)76)22-40(64)43(25)38)60-62-45-42(84(77,78)79)18-26-17-31(81(68,69)70)20-37(44(26)46(45)65)53-50-55-48(51-27-6-4-3-5-7-27)54-49(56-50)52-28-8-10-29(11-9-28)57-58-30-12-13-39(63)34(19-30)47(66)67;;;;;/h3-23,63-65H,1-2H3,(H,66,67)(H,68,69,70)(H,71,72,73)(H,74,75,76)(H,77,78,79)(H3,51,52,53,54,55,56);;;;;/q;5*+1/p-5",HTPJPKXFBLUBPI-UHFFFAOYSA-I,[Na+].[Na+].[Na+].[Na+].[Na+].COc1cc(N=Nc2cc(cc3cc(cc(O)c23)[S]([O-])(=O)=O)[S]([O-])(=O)=O)c(C)cc1N=Nc4c(O)c5c(Nc6nc(Nc7ccccc7)nc(Nc8ccc(cc8)N=Nc9ccc(O)c(c9)C([O-])=O)n6)cc(cc5cc4[S]([O-])(=O)=O)[S]([O-])(=O)=O,-2.483387966,0,1,G1,1333.098,-6.91128,288.3338,89,30,6,39,18,430,9,0,0,9,487.77,614.9145323,3.39E-06,4792.659164