ID,Name,InChI,InChIKey,SMILES,Solubility,SD,Ocurrences,Group,MolWt,MolLogP,MolMR,HeavyAtomCount,NumHAcceptors,NumHDonors,NumHeteroatoms,NumRotatableBonds,NumValenceElectrons,NumAromaticRings,NumSaturatedRings,NumAliphaticRings,RingCount,TPSA,LabuteASA,BalabanJ,BertzCT
A-189,"4,4,13,13-tetraethoxy-3,14-dioxa-8,9-dithia-4,13-disilahexadecane","InChI=1S/C18H42O6S2Si2/c1-7-19-27(20-8-2,21-9-3)17-13-15-25-26-16-14-18-28(22-10-4,23-11-5)24-12-6/h7-18H2,1-6H3",FBBATURSCRIBHN-UHFFFAOYSA-N,CCO[Si](CCCSSCCC[Si](OCC)(OCC)OCC)(OCC)OCC,-5.676541809,0,1,G1,474.834,5.2448,125.028,28,8,0,10,21,170,0,0,0,0,55.38,182.7726662,4.137940541,289.9984128
A-191,3-methylbutyl (2E)-3-(4-methoxyphenyl)prop-2-enoate,"InChI=1S/C15H20O3/c1-12(2)10-11-18-15(16)9-6-13-4-7-14(17-3)8-5-13/h4-9,12H,10-11H2,1-3H3/b9-6+",UBNYRXMKIIGMKK-RMKNXTFCSA-N,COc1ccc(\C=C\C(=O)OCCC(C)C)cc1,-5.49192521,0,1,G1,248.322,3.2977,72.442,18,3,0,3,6,98,1,0,0,1,35.53,108.4148917,2.398340762,390.7046704
A-192,2-(hexadecanoylamino)acetic acid,"InChI=1S/C18H35NO3/c1-2-3-4-5-6-7-8-9-10-11-12-13-14-15-17(20)19-16-18(21)22/h2-16H2,1H3,(H,19,20)(H,21,22)",KVTFEOAKFFQCCX-UHFFFAOYSA-N,CCCCCCCCCCCCCCCC(=O)NCC(O)=O,-5.593122622,0.044587195,3,G5,313.482,4.6685,90.9575,22,2,2,4,16,130,0,0,0,0,66.4,135.6104071,3.107593514,279.5058337
A-193,"(1E,5E,9E)-cyclododeca-1,5,9-triene","InChI=1S/C12H18/c1-2-4-6-8-10-12-11-9-7-5-3-1/h1-2,7-10H,3-6,11-12H2/b2-1-,9-7-,10-8+",ZOLLIQAKMYWTBR-UDIJVJLMSA-N,C\1C\C=C/CC\C=C/CC/C=C1,-5.365156254,0.198970004,2,G3,162.276,4.0092,55.122,12,0,0,0,0,66,0,0,1,1,0,75.67897404,2.304110598,121.1931192
A-195,"bis({[bis(3,5,5-trimethylhexyl)carbamothioyl]sulfanyl})zinc","InChI=1S/2C19H39NS2.Zn/c2*1-15(13-18(3,4)5)9-11-20(17(21)22)12-10-16(2)14-19(6,7)8;/h2*15-16H,9-14H2,1-8H3,(H,21,22);/q;;+2/p-2",YRZWCIIGZCKHBM-UHFFFAOYSA-L,CC(CCN(CCC(C)CC(C)(C)C)C(=S)S[Zn]SC(=S)N(CCC(C)CC(C)(C)C)CCC(C)CC(C)(C)C)CC(C)(C)C,-6.102526939,0,1,G1,754.698,13.3887,214.936,45,4,0,7,18,264,0,0,0,0,6.48,308.1417279,5.345455404,714.6494188
A-196,2-[4-(bromomethyl)phenyl]benzonitrile,"InChI=1S/C14H10BrN/c15-9-11-5-7-12(8-6-11)14-4-2-1-3-13(14)10-16/h1-8H,9H2",LFFIEVAMVPCZNA-UHFFFAOYSA-N,BrCc1ccc(cc1)c2ccccc2C#N,-6.656649109,0,1,G1,272.145,4.12018,69.224,16,1,0,2,2,78,2,0,0,2,23.79,103.4785088,2.468747212,523.1767595
A-197,"2,2,6,6-tetramethylpiperidin-4-yl hexadecanoate 2,2,6,6-tetramethylpiperidin-4-yl octadecanoate","InChI=1S/C27H53NO2.C25H49NO2/c1-6-7-8-9-10-11-12-13-14-15-16-17-18-19-20-21-25(29)30-24-22-26(2,3)28-27(4,5)23-24;1-6-7-8-9-10-11-12-13-14-15-16-17-18-19-23(27)28-22-20-24(2,3)26-25(4,5)21-22/h24,28H,6-23H2,1-5H3;22,26H,6-21H2,1-5H3",KABHMUPUYPTLHI-UHFFFAOYSA-N,CCCCCCCCCCCCCCCCCC(=O)OC1CC(C)(C)NC(C)(C)C1.CCCCCCCCCCCCCCCC(=O)OC2CC(C)(C)NC(C)(C)C2,-6.214524895,1,2,G2,819.398,15.4204,250.6734,58,6,2,6,32,344,0,2,2,2,76.66,361.9953267,5.81E-07,988.8485276
A-198,N-(2-ethylhexyl)-7-methyloctanamide,"InChI=1S/C17H35NO/c1-5-7-12-16(6-2)14-18-17(19)13-10-8-9-11-15(3)4/h15-16H,5-14H2,1-4H3,(H,18,19)",CYJLFSMDQYFKRD-UHFFFAOYSA-N,CCCCC(CC)CNC(=O)CCCCCC(C)C,-5.731545253,0,1,G1,269.473,4.9255,84.2387,19,1,1,2,12,114,0,0,0,0,29.1,120.2897091,3.51254411,213.3076044
A-199,Doramectin,"InChI=1S/C50H74O14/c1-27-13-12-16-34-26-57-47-42(51)30(4)21-37(50(34,47)54)48(53)60-36-22-35(63-49(25-36)20-19-29(3)45(64-49)33-14-10-9-11-15-33)18-17-28(2)44(27)61-41-24-39(56-8)46(32(6)59-41)62-40-23-38(55-7)43(52)31(5)58-40/h12-13,16-17,19-21,27,29,31-33,35-47,51-52,54H,9-11,14-15,18,22-26H2,1-8H3/b13-12+,28-17+,34-16+/t27-,29-,31-,32-,35+,36-,37-,38-,39-,40-,41-,42+,43-,44?,45-,46?,47+,49+,50+/m0/s1",QLFZZSKTJWDQOS-NJPOTTGESA-N,CO[C@H]1C[C@@H](O[C@@H](C)[C@@H]1O)OC2[C@H](C)O[C@H](C[C@@H]2OC)OC3[C@@H](C)/C=C/C=C/4CO[C@@H]5[C@H](O)C(=C[C@@H](C(=O)O[C@H]6C[C@@H](C\C=C3/C)O[C@@]7(C6)O[C@@H]([C@@H](C)C=C7)C8CCCCC8)[C@]45O)C,-7.555881514,0,1,G1,899.128,5.9116,234.4254,64,14,3,14,7,358,0,5,8,8,170.06,378.8064259,1.081008911,1787.630132
A-201,"1,1':4',1''-terphenyl",InChI=1S/C18H14/c1-3-7-15(8-4-1)17-11-13-18(14-12-17)16-9-5-2-6-10-16/h1-14H,XJKSTNDFUHDPQJ-UHFFFAOYSA-N,c1ccc(cc1)c2ccc(cc2)c3ccccc3,-6.183335848,0.461832076,2,G3,230.31,5.0206,77.314,18,0,0,0,2,86,3,0,0,3,0,107.5455915,1.951466169,548.7160655
A-203,pyrene,InChI=1S/C16H10/c1-3-11-7-9-13-5-2-6-14-10-8-12(4-1)15(11)16(13)14/h1-10H,BBEAQIROQSPTKN-UHFFFAOYSA-N,c1cc2ccc3cccc4ccc(c1)c2c34,-6.178796616,0.058820019,3,G5,202.256,4.584,70.146,16,0,0,0,0,74,4,0,0,4,0,93.45542159,2.505955689,666.6198058
A-204,"1,4-dibutyl benzene-1,4-dicarboxylate","InChI=1S/C16H22O4/c1-3-5-11-19-15(17)13-7-9-14(10-8-13)16(18)20-12-6-4-2/h7-10H,3-6,11-12H2,1-2H3",LQLQDKBJAIILIQ-UHFFFAOYSA-N,CCCCOC(=O)c1ccc(cc1)C(=O)OCCCC,-6.40319542,0.688111365,6,G4,278.348,3.6004,76.823,20,4,0,4,8,110,1,0,0,1,52.6,119.6309589,2.503712391,381.6079422
A-208,1-(2-ethylbutyl)cyclohexane-1-carbonitrile,"InChI=1S/C13H23N/c1-3-12(4-2)10-13(11-14)8-6-5-7-9-13/h12H,3-10H2,1-2H3",DRMOLJPDSCAGCC-UHFFFAOYSA-N,CCC(CC)CC1(CCCCC1)C#N,-6.587338232,0,1,G1,193.334,4.28678,59.82,14,1,0,1,4,80,0,1,1,1,23.79,88.50530493,2.55666339,191.7713275
A-209,1-(4-methoxyphenyl)-4-(4-nitrophenyl)piperazine,"InChI=1S/C17H19N3O3/c1-23-17-8-6-15(7-9-17)19-12-10-18(11-13-19)14-2-4-16(5-3-14)20(21)22/h2-9H,10-13H2,1H3",AVCKOFMRPAJEPN-UHFFFAOYSA-N,COc1ccc(cc1)N2CCN(CC2)c3ccc(cc3)[N+]([O-])=O,-6.929013035,0,1,G1,313.357,2.93,90.5164,23,5,0,6,4,120,2,1,1,3,58.85,134.593565,1.617703496,662.4878771
A-212,bis(8-methylnonyl) sebacate,"InChI=1S/C30H58O4/c1-27(2)21-15-9-7-13-19-25-33-29(31)23-17-11-5-6-12-18-24-30(32)34-26-20-14-8-10-16-22-28(3)4/h27-28H,5-26H2,1-4H3",OAXZVLMNNOOMGN-UHFFFAOYSA-N,CC(C)CCCCCCCOC(=O)CCCCCCCCC(=O)OCCCCCCCC(C)C,-7.252394502,0.275453734,2,G3,482.79,9.1868,143.934,34,4,0,4,25,202,0,0,0,0,52.6,211.872707,3.280659315,416.7216822
A-213,"6'-(dibutylamino)-3'-methyl-2'-(phenylamino)-3H-spiro[2-benzofuran-1,9'-xanthene]-3-one","InChI=1S/C35H36N2O3/c1-4-6-19-37(20-7-5-2)26-17-18-29-33(22-26)39-32-21-24(3)31(36-25-13-9-8-10-14-25)23-30(32)35(29)28-16-12-11-15-27(28)34(38)40-35/h8-18,21-23,36H,4-7,19-20H2,1-3H3",XAAILNNJDMIMON-UHFFFAOYSA-N,CCCCN(CCCC)c1ccc2c(Oc3cc(C)c(Nc4ccccc4)cc3C25OC(=O)c6ccccc56)c1,-7.404250358,0.324618535,3,G5,532.684,8.71322,161.1882,40,5,1,5,9,204,4,0,2,6,50.8,236.3036951,1.512692155,1540.023187
A-215,"2,2-difluoro-1,3-benzodioxole-4-carbaldehyde",InChI=1S/C8H4F2O3/c9-8(10)12-6-3-1-2-5(4-11)7(6)13-8/h1-4H,NIBFJPXGNVPNHK-UHFFFAOYSA-N,FC1(F)Oc2cccc(C=O)c2O1,-2.155833357,0,1,G1,186.113,1.8206,38.0325,13,3,0,5,1,68,1,0,1,2,35.53,71.87513956,2.506530915,362.4068138
A-216,"1-amino-4-(ethylamino)-9,10-dioxo-9,10-dihydroanthracene-2-carbonitrile","InChI=1S/C17H13N3O2/c1-2-20-12-7-9(8-18)15(19)14-13(12)16(21)10-5-3-4-6-11(10)17(14)22/h3-7,20H,2,19H2,1H3",ATXPWKWYLDEURI-UHFFFAOYSA-N,CCNc1cc(C#N)c(N)c2C(=O)c3ccccc3C(=O)c12,-7.638280591,0,1,G1,291.31,2.34768,83.0401,22,5,2,5,2,108,2,0,1,3,95.98,126.9127535,2.386809954,862.938264
A-219,(3-aminopropyl)[(9Z)-octadec-9-en-1-yl]amine; bis((9Z)-octadec-9-enoic acid),"InChI=1S/C21H44N2.2C18H34O2/c1-2-3-4-5-6-7-8-9-10-11-12-13-14-15-16-17-20-23-21-18-19-22;2*1-2-3-4-5-6-7-8-9-10-11-12-13-14-15-16-17-18(19)20/h9-10,23H,2-8,11-22H2,1H3;2*9-10H,2-8,11-17H2,1H3,(H,19,20)/b3*10-9-",VTXWSJAEIWTHCL-DJNDIFCPSA-N,CCCCCCCC\C=C/CCCCCCCCNCCCN.CCCCCCCC\C=C/CCCCCCCC(O)=O.CCCCCCCC\C=C/CCCCCCCC(O)=O,-8.25019206,0,1,G1,889.533,18.1793,280.1687,63,4,4,6,49,374,0,0,0,0,112.65,393.9201272,-8.60E-07,883.0930025
A-220,"2-ethylhexyl 4-[(4-{[4-(tert-butylcarbamoyl)phenyl]amino}-6-[(4-{[(2-ethylhexyl)oxy]carbonyl}phenyl)amino]-1,3,5-triazin-2-yl)amino]benzoate","InChI=1S/C44H59N7O5/c1-8-12-14-30(10-3)28-55-39(53)33-18-24-36(25-19-33)46-42-48-41(45-35-22-16-32(17-23-35)38(52)51-44(5,6)7)49-43(50-42)47-37-26-20-34(21-27-37)40(54)56-29-31(11-4)15-13-9-2/h16-27,30-31H,8-15,28-29H2,1-7H3,(H,51,52)(H3,45,46,47,48,49,50)",OSCJHTSDLYVCQC-UHFFFAOYSA-N,CCCCC(CC)COC(=O)c1ccc(Nc2nc(Nc3ccc(cc3)C(=O)NC(C)(C)C)nc(Nc4ccc(cc4)C(=O)OCC(CC)CCCC)n2)cc1,-8.185258765,0.41195437,2,G3,766,10.3771,223.3973,56,11,4,12,21,300,4,0,0,4,156.46,331.5664038,1.500952066,1746.281277
A-222,dioxovanadium,InChI=1S/2O.V,GRUMUEUJTSXQOI-UHFFFAOYSA-N,O=[V]=O,-4.400250091,1.528905422,4,G4,82.94,-0.2401,1.373,3,2,0,3,0,17,0,0,0,0,34.14,24.36039623,3.265986324,23.77443751
A-224,1-dodecylpyridin-1-ium chloride,"InChI=1S/C17H30N.ClH/c1-2-3-4-5-6-7-8-9-10-12-15-18-16-13-11-14-17-18;/h11,13-14,16-17H,2-10,12,15H2,1H3;1H/q+1;/p-1",GKQHIYSTBXDYNQ-UHFFFAOYSA-M,[Cl-].CCCCCCCCCCCC[n+]1ccccc1,-0.453910537,0,1,G1,283.887,1.899,78.481,19,0,0,2,11,110,1,0,0,1,3.88,125.3934212,3.24E-06,273.8503707
A-225,"2-(2,6-dimethylphenoxy)acetic acid","InChI=1S/C10H12O3/c1-7-4-3-5-8(2)10(7)13-6-9(11)12/h3-5H,6H2,1-2H3,(H,11,12)",MLBCURLNKYKBEQ-UHFFFAOYSA-N,Cc1cccc(C)c1OCC(O)=O,-2.256644531,0.4791308,3,G5,180.203,1.76684,49.0468,13,2,1,3,3,70,1,0,0,1,46.53,76.96047266,2.806920562,297.6959388
A-227,"({bis[(2-ethylhexanoyl)oxy]-2,4-dioxa-3-bora-1,5-dicobaltapentan-3-yl}oxy)cobaltio 2-ethylhexanoate","InChI=1S/3C8H16O2.BO3.3Co/c3*1-3-5-6-7(4-2)8(9)10;2-1(3)4;;;/h3*7H,3-6H2,1-2H3,(H,9,10);;;;/q;;;-3;+1;+2;+3/p-3",HRNSQLGPRFFUNA-UHFFFAOYSA-K,CCCCC(CC)C(=O)O[Co]OB(O[Co])O[Co](OC(=O)C(CC)CCCC)OC(=O)C(CC)CCCC,-1.825456143,0,1,G1,665.226,6.0374,127.203,37,9,0,13,23,225,0,0,0,0,106.59,243.4543891,5.268005358,600.2721927
A-228,"disodium 4-[(E)-2-[2,6-dihydroxy-3-(hydroxymethyl)-5-[(E)-2-(4-sulfonatonaphthalen-1-yl)diazen-1-yl]phenyl]diazen-1-yl]naphthalene-1-sulfonate","InChI=1S/C27H20N4O9S2.2Na/c32-14-15-13-22(30-28-20-9-11-23(41(35,36)37)18-7-3-1-5-16(18)20)27(34)25(26(15)33)31-29-21-10-12-24(42(38,39)40)19-8-4-2-6-17(19)21;;/h1-13,28-29,32H,14H2,(H,35,36,37)(H,38,39,40);;/q;2*+1/p-2/b30-22+,31-25+;;",TUQJHVRCALPCHU-CRVUNLCOSA-L,[Na+].[Na+].OCC1=CC(=N/Nc2ccc(c3ccccc23)[S]([O-])(=O)=O)\C(=O)/C(=N/Nc4ccc(c5ccccc45)[S]([O-])(=O)=O)C1=O,-0.817164744,0,1,G1,652.574,-5.2469,149.4706,44,13,3,17,7,214,5,0,0,5,217.55,293.3058533,2.64E-06,2360.006031
A-229,1-(4-hydroxyphenyl)ethan-1-one,"InChI=1S/C8H8O2/c1-6(9)7-2-4-8(10)5-3-7/h2-5,10H,1H3",TXFPEBPIARQUIG-UHFFFAOYSA-N,CC(=O)c1ccc(O)cc1,-1.138382451,0,1,G1,136.15,1.5948,38.1113,10,2,1,2,1,52,1,0,0,1,37.3,59.1170432,3.003400685,235.9394334
A-230,calcium magnesium(2+) ion dioxidandiide,InChI=1S/Ca.Mg.2O/q2*+2;2*-2,YLUIKWVQCKSMCF-UHFFFAOYSA-N,[O--].[O--].[Mg++].[Ca++],-1.988356233,1.862057608,3,G4,96.381,-0.9992,12.881,4,0,0,4,0,16,0,0,0,0,57,70.71564842,0,6
A-232,disodium 3-[(E)-2-{4-[(E)-2-(7-amino-1-hydroxy-3-sulfonatonaphthalen-2-yl)diazen-1-yl]naphthalen-1-yl}diazen-1-yl]-2-hydroxybenzoate,"InChI=1S/C27H19N5O7S.2Na/c28-15-9-8-14-12-23(40(37,38)39)24(26(34)19(14)13-15)32-30-21-11-10-20(16-4-1-2-5-17(16)21)29-31-22-7-3-6-18(25(22)33)27(35)36;;/h1-13,33-34H,28H2,(H,35,36)(H,37,38,39);;/q;2*+1/p-2",QENJECLVTWIZIG-UHFFFAOYSA-L,[Na+].[Na+].Nc1ccc2cc(c(N=Nc3ccc(N=Nc4cccc(C([O-])=O)c4O)c5ccccc35)c(O)c2c1)[S]([O-])(=O)=O,-2.786820452,0,1,G1,601.508,-0.9072,142.7257,42,12,3,15,6,200,5,0,0,5,213.25,282.5069677,2.42E-06,2018.572524
A-234,"6,10-dimethylundeca-3,5,9-trien-2-one","InChI=1S/C13H20O/c1-11(2)7-5-8-12(3)9-6-10-13(4)14/h6-7,9-10H,5,8H2,1-4H3/b10-6+,12-9+",JXJIQCXXJGRKRJ-KOOBJXAQSA-N,CC(C)=CCC\C(C)=C\C=C\C(C)=O,-3.297212067,0,1,G1,192.302,3.8243,62.243,14,1,0,1,5,78,0,0,0,0,17.07,87.2112694,3.896758106,262.9601503
A-236,"1,3-divinylimidazolidin-2-one","InChI=1S/C7H10N2O/c1-3-8-5-6-9(4-2)7(8)10/h3-4H,1-2,5-6H2",HMYBDZFSXBJDGL-UHFFFAOYSA-N,C=CN1CCN(C=C)C1=O,-1.155886444,0,1,G1,138.17,1.011,39.202,10,1,0,3,2,54,0,1,1,1,23.55,60.22505594,2.655338357,158.4449203
A-237,2-amino-4-nitrophenol,"InChI=1S/C6H6N2O3/c7-5-3-4(8(10)11)1-2-6(5)9/h1-3,9H,7H2",VLZVIIYRNMWPSN-UHFFFAOYSA-N,Nc1cc(ccc1O)[N+]([O-])=O,-2.205601857,0.008049072,2,G3,154.125,0.8826,39.1736,11,4,2,5,1,58,1,0,0,1,89.39,62.21850329,3.151549668,297.8789117
A-238,magnesium,InChI=1S/Mg/q+2,JLVVSXFLKOJNIY-UHFFFAOYSA-N,[Mg++],-2.402069338,0.552078934,3,G4,24.305,-0.3808,5.754,1,0,0,1,0,0,0,0,0,0,0,23.63837357,0,0
A-241,oxocalcium,InChI=1S/Ca.O,ODINCKMPIJJUCX-UHFFFAOYSA-N,O=[Ca],-1.768326879,0.866267647,3,G4,56.077,-0.4996,6.4405,2,1,0,2,0,8,0,0,0,0,17.07,37.06721304,2,2
A-242,"5-nitro-1,3-dihydro-2H-benzimidazol-2-one","InChI=1S/C7H5N3O3/c11-7-8-5-2-1-4(10(12)13)3-6(5)9-7/h1-3H,(H2,8,9,11)",DLJZIPVEVJOKHB-UHFFFAOYSA-N,[O-][N+](=O)c1ccc2NC(=O)Nc2c1,-3.274087547,0,1,G1,179.135,0.7644,45.5738,13,3,2,6,1,66,2,0,0,2,91.79,71.35637388,2.743519994,525.0074434
A-243,5-methyl-5-phenylhexan-3-one,"InChI=1S/C13H11N3O3S2/c1-9-2-4-10(5-3-9)21(18,19)11(6-14)7-16-8-12(17)15-13(16)20/h2-5,7H,8H2,1H3,(H,15,17,20)/b11-7+",GPLOHVHPULDLOP-YRNVUSSQSA-N,Cc1ccc(cc1)[S](=O)(=O)/C(=C/N2CC(=O)NC2=S)C#N,-3.529299295,0,1,G1,321.383,0.8504,79.5075,21,5,1,8,3,108,1,1,1,2,90.27,127.13854,2.410771719,773.8746665
A-247,2-ethyl-3-hydroxy-4H-pyran-4-one,"InChI=1S/C7H8O3/c1-2-6-7(9)5(8)3-4-10-6/h3-4,9H,2H2,1H3",YIKYNHJUKRTCJL-UHFFFAOYSA-N,CCC1=C(O)C(=O)C=CO1,-1.17595802,0,1,G1,140.138,0.9078,36.0208,10,3,1,3,1,54,1,0,0,1,50.44,57.92186002,3.27872706,274.4248628
A-249,methyl 2-phenylacetate,"InChI=1S/C9H10O2/c1-11-9(10)7-8-5-3-2-4-6-8/h2-6H,7H2,1H3",CRZQGDNQQAALAY-UHFFFAOYSA-N,COC(=O)Cc1ccccc1,-2.211401723,0,1,G1,150.177,1.4021,42.162,11,2,0,2,2,58,1,0,0,1,26.3,65.80129679,2.579302292,228.5778659
A-251,lead; sulfuric acid; hydrate,"InChI=1S/H2O4S.H2O.Pb/c1-5(2,3)4;;/h(H2,1,2,3,4);1H2;",AWTSMFNITNKUQL-UHFFFAOYSA-N,O.[Pb].O[S](O)(=O)=O,-4.226296416,0,1,G1,323.294,-1.8583,23.5452,7,2,2,7,0,44,0,0,0,0,106.1,60.76948755,-8.00E-08,91.24856185
A-252,1-chloro-2-methyl-3-nitrobenzene,"InChI=1S/C7H6ClNO2/c1-5-6(8)3-2-4-7(5)9(10)11/h2-4H,1H3",XCSNRORTQRKCHB-UHFFFAOYSA-N,Cc1c(Cl)cccc1[N+]([O-])=O,-3.27068643,0,1,G1,171.583,2.55662,42.8434,11,2,0,4,1,58,1,0,0,1,43.14,68.75258718,3.273580822,298.4920898
A-254,calcium dihydroxide,InChI=1S/Ca.2H2O/h;2*1H2/q+2;;/p-2,AXCZMVOFGPJBDE-UHFFFAOYSA-L,[OH-].[OH-].[Ca++],-1.910729926,0.672750255,7,G4,74.092,-0.7344,9.6256,3,2,0,3,0,16,0,0,0,0,60,48.44575261,0,2.754887502
A-255,silicon(+4) cation tetraphosphate,"InChI=1S/4H3O4P.3Si/c4*1-5(2,3)4;;;/h4*(H3,1,2,3,4);;;/q;;;;3*+4/p-12",XLUBVTJUEUUZMR-UHFFFAOYSA-B,[Si+4].[Si+4].[Si+4].[O-][P]([O-])([O-])=O.[O-][P]([O-])([O-])=O.[O-][P]([O-])([O-])=O.[O-][P]([O-])([O-])=O,-3.055986963,0.295382893,3,G5,464.138,-12.4408,47.688,23,16,0,23,0,128,0,0,0,0,345,141.4416007,-2.84E-08,291.9826351
A-256,1-chlorohexane,"InChI=1S/C6H13Cl/c1-2-3-4-5-6-7/h2-6H2,1H3",MLRVZFYXUZQSRU-UHFFFAOYSA-N,CCCCCCCl,-3.122388733,0.227965978,2,G3,120.623,2.8055,34.862,7,0,0,1,4,44,0,0,0,0,0,50.86722783,2.447472888,23.3609904
A-257,"2,2,2-trifluoroethyl methacrylate","InChI=1S/C6H7F3O2/c1-4(2)5(10)11-3-6(7,8)9/h1,3H2,2H3",QTKPMCIBUROOGY-UHFFFAOYSA-N,CC(=C)C(=O)OCC(F)(F)F,-2.268475684,0,1,G1,168.114,1.668,31.828,11,2,0,5,2,64,0,0,0,0,26.3,61.64603211,3.72638742,171.1564341
A-259,bismuth hydroxide nitrate oxide,InChI=1S/Bi.3NO3/c;3*2-1(3)4/q+3;3*-1,PPNKDDZCLDMRHS-UHFFFAOYSA-N,[O-][N+](=O)O[Bi](O[N+]([O-])=O)O[N+]([O-])=O,-2.642008137,0,1,G1,394.992,-1.4038,29.9922,13,9,0,13,6,74,0,0,0,0,157.11,77.82631385,4.095996371,184.8606038
A-262,octan-2-one,"InChI=1S/C8H16O/c1-3-4-5-6-7-8(2)9/h3-7H2,1-2H3",ZPVFWPFBNIEHGJ-UHFFFAOYSA-N,CCCCCCC(C)=O,-2.153696327,0.051848164,2,G3,128.215,2.5458,39.44,9,1,0,1,5,54,0,0,0,0,17.07,57.45536793,2.828868135,76.63682062
A-263,2-[(E)-oct-2-enyl]butanedioic acid,"InChI=1S/C12H20O4/c1-2-3-4-5-6-7-8-10(12(15)16)9-11(13)14/h6-7,10H,2-5,8-9H2,1H3,(H,13,14)(H,15,16)/b7-6+",QWBQTFQCJMOSPK-VOTSOKGWSA-N,CCCCC/C=C/CC(CC(O)=O)C(O)=O,-2.404240574,0,1,G1,228.288,2.6885,61.2776,16,2,2,4,9,92,0,0,0,0,74.6,95.97552296,3.831869773,245.4033153
A-264,"2-(prop-1-en-1-yl)-2,3,3-tripropylbutanedioic acid","InChI=1S/C16H28O4/c1-5-9-15(10-6-2,13(17)18)16(11-7-3,12-8-4)14(19)20/h5,9H,6-8,10-12H2,1-4H3,(H,17,18)(H,19,20)/b9-5+",CDQYPMBESFIYFO-WEVVVXLNSA-N,CCCC(CCC)(C(O)=O)C(CCC)(\C=C\C)C(O)=O,-3.495359601,0,1,G1,284.396,4.1048,79.6756,20,2,2,4,10,116,0,0,0,0,74.6,121.4352914,6.208567894,353.4883731
A-266,17-hydroxy-1-methylandrost-4-en-3-one,"InChI=1S/C20H30O2/c1-12-10-14(21)11-13-4-5-15-16-6-7-18(22)19(16,2)9-8-17(15)20(12,13)3/h11-12,15-18,22H,4-10H2,1-3H3/t12-,15-,16-,17-,18-,19-,20-/m0/s1",KROXBRXHRBCDNO-IFMMWYRXSA-N,C[C@H]1CC(=O)C=C2CC[C@H]3[C@@H]4CC[C@H](O)[C@@]4(C)CC[C@@H]3[C@@]12C,-3.526422567,0,1,G1,302.458,4.1252,87.2638,22,2,1,2,0,122,0,3,4,4,37.3,133.9159794,1.720020178,535.8253338
A-267,"sodium 2-{2,5-dichloro-4-[(E)-2-(2-methyl-1H-indol-3-yl)diazen-1-yl]benzenesulfonamido}ethane-1-sulfonate","InChI=1S/C17H16Cl2N4O5S2.Na/c1-10-17(11-4-2-3-5-14(11)21-10)23-22-15-8-13(19)16(9-12(15)18)30(27,28)20-6-7-29(24,25)26;/h2-5,8-9,20,22H,6-7H2,1H3,(H,24,25,26);/q;+1/p-1/b23-17+;",IQWBFKOZXPTGNT-YFZNFVDXSA-M,[Na+].CC\1=Nc2ccccc2C1=N/Nc3cc(Cl)c(cc3Cl)[S](=O)(=O)NCC[S]([O-])(=O)=O,-3.756179517,0.092818288,2,G3,513.36,-0.2569,115.5854,31,8,2,14,7,160,2,0,1,3,140.12,211.5772261,3.41E-06,1281.422245
A-270,2-hydroxy-1-(4-{[4-(2-hydroxy-2-methylpropanoyl)phenyl]methyl}phenyl)-2-methylpropan-1-one,"InChI=1S/C21H24O4/c1-20(2,24)18(22)16-9-5-14(6-10-16)13-15-7-11-17(12-8-15)19(23)21(3,4)25/h5-12,24-25H,13H2,1-4H3",PCKZAVNWRLEHIP-UHFFFAOYSA-N,CC(C)(O)C(=O)c1ccc(Cc2ccc(cc2)C(=O)C(C)(C)O)cc1,-4.536378597,0,1,G1,340.419,3.1846,96.9466,25,4,2,4,6,132,2,0,0,2,74.6,147.6844881,2.102909304,690.0287279
A-271,barium(+2) cation; iron(+3) cation; oxygen(-2) anion,InChI=1S/Ba.12Fe.19O/q+2;12*+3;19*-2,HPYIMVBXZPJVBV-UHFFFAOYSA-N,[O--].[O--].[O--].[O--].[O--].[O--].[O--].[O--].[O--].[O--].[O--].[O--].[O--].[O--].[O--].[O--].[O--].[O--].[O--].[Fe+3].[Fe+3].[Fe+3].[Fe+3].[Fe+3].[Fe+3].[Fe+3].[Fe+3].[Fe+3].[Fe+3].[Fe+3].[Fe+3].[Ba++],-8.744859544,0,1,G1,1111.449,-2.668,18.7975,32,0,0,32,0,212,0,0,0,0,541.5,351.2263767,0,36.26982724
A-273,"(octahydro-4,7-methano-1H-indenediyl)bis(methylene) diacrylate","InChI=1S/C18H24O4/c1-3-16(19)21-9-11-5-6-14-15-8-12(18(11)14)7-13(15)10-22-17(20)4-2/h3-4,11-15,18H,1-2,5-10H2",VEBCLRKUSAGCDF-UHFFFAOYSA-N,C=CC(=O)OCC1CCC2C3CC(CC3COC(=O)C=C)C12,-4.493085819,0,1,G1,304.386,2.7432,81.72,22,4,0,4,6,120,0,3,3,3,52.6,131.0967021,1.545513958,483.478828
A-276,1-(2-benzenesulfonamidophenyl)-3-phenylurea,"InChI=1S/C19H17N3O3S/c23-19(20-15-9-3-1-4-10-15)21-17-13-7-8-14-18(17)22-26(24,25)16-11-5-2-6-12-16/h1-14,22H,(H2,20,21,23)",BGLZECVIKIGPIF-UHFFFAOYSA-N,O=C(Nc1ccccc1)Nc2ccccc2N[S](=O)(=O)c3ccccc3,-4.578402879,0,1,G1,367.43,4.1314,102.7759,26,3,3,7,5,132,3,0,0,3,87.3,151.4824182,1.771000184,990.8075236
A-277,dipotassium; oxygen(-2) anion; titanium(+4) cation,InChI=1S/2K.3O.Ti/q2*+1;3*-2;+4,KEWYKJOOCFOYTD-UHFFFAOYSA-N,[O--].[O--].[O--].[K+].[K+].[Ti+4],-5.583643126,0.316660188,3,G5,174.06,-6.3509,2.0595,6,0,0,6,0,24,0,0,0,0,85.5,136.6620011,0,8.754887502
A-278,2-ethylhexyl prop-2-enoate,"InChI=1S/C11H20O2/c1-4-7-8-10(5-2)9-13-11(12)6-3/h6,10H,3-5,7-9H2,1-2H3",GOXQRTZXKQZDDN-UHFFFAOYSA-N,CCCCC(CC)COC(=O)C=C,-4.283204614,0.508852307,2,G2,184.279,2.932,54.462,13,2,0,2,7,76,0,0,0,0,26.3,80.97413647,3.578930561,152.1692686
A-280,"zinc bis[O,O-bis(2-ethylhexyl)] bis(dithiophosphate)","InChI=1S/2C16H35O2PS2.Zn/c2*1-5-9-11-15(7-3)13-17-19(20,21)18-14-16(8-4)12-10-6-2;/h2*15-16H,5-14H2,1-4H3,(H,20,21);/q;;+2/p-2",OECQDNKCDGGPFY-UHFFFAOYSA-L,[Zn++].CCCCC(CC)CO[P]([S-])(=S)OCC(CC)CCCC.CCCCC(CC)CO[P]([S-])(=S)OCC(CC)CCCC,-4.928855971,0,1,G1,772.498,12.4451,200.332,43,8,0,11,28,256,0,0,0,0,36.92,302.789615,-7.27E-07,589.7531357
A-284,Tricyclodecanyl acetate,"InChI=1S/C12H18O2/c1-7(13)14-12-6-8-5-11(12)10-4-2-3-9(8)10/h8-12H,2-6H2,1H3",YKFHIJHJBUDXFP-UHFFFAOYSA-N,CC(=O)OC1CC2CC1C3CCCC23,-3.338049828,0,1,G1,194.274,2.3742,52.599,14,2,0,2,1,78,0,3,3,3,26.3,85.01118816,1.73499116,261.047344
A-285,ethanethiol,"InChI=1S/C2H6S/c1-2-3/h3H,2H2,1H3",DNJIEGIFACGWOD-UHFFFAOYSA-N,CCS,-0.84591656,0.150513624,3,G5,62.137,0.9361,19.527,3,1,1,1,0,20,0,0,0,0,0,26.25925981,1.632993162,2.754887502