ID,Name,InChI,InChIKey,SMILES,Solubility,SD,Ocurrences,Group,MolWt,MolLogP,MolMR,HeavyAtomCount,NumHAcceptors,NumHDonors,NumHeteroatoms,NumRotatableBonds,NumValenceElectrons,NumAromaticRings,NumSaturatedRings,NumAliphaticRings,RingCount,TPSA,LabuteASA,BalabanJ,BertzCT
A-4063,"disodium bis[(oxoboranyl)oxy]bicyclo[5.5.1]hexaboroxane-3,5-bis(olate)",InChI=1S/8BO3.2Na.4H2O/c8*2-1(3)4;;;;;;/h;;;;;;;;;;4*1H2/q8*-3;2*+1;;;;,RHSGYAYYVYMXIF-UHFFFAOYSA-N,O.O.O.O.[Na+].[Na+].[O-]B([O-])[O-].[O-]B([O-])[O-].[O-]B([O-])[O-].[O-]B([O-])[O-].[O-]B([O-])[O-].[O-]B([O-])[O-].[O-]B([O-])[O-].[O-]B([O-])[O-],-0.42018642,0,1,G1,588.512,-40.8732,60.4872,38,24,0,38,0,224,0,0,0,0,679.44,258.6466069,-1.41E-08,148.8544077
A-4064,sodium 2-phenoxyacetate,"InChI=1S/C8H8O3.Na/c9-8(10)6-11-7-4-2-1-3-5-7;/h1-5H,6H2,(H,9,10);/q;+1/p-1",WPTJBFNYRRZIDZ-UHFFFAOYSA-M,[Na+].[O-]C(=O)COc1ccccc1,0.108595705,0,1,G1,174.131,-3.1807,36.944,12,3,0,4,3,58,1,0,0,1,49.36,92.64398805,1.21E-06,235.3181056
A-4066,"sodium 4-{[4-(diethylamino)phenyl][4-(diethyliminio)cyclohexa-2,5-dien-1-ylidene]methyl}benzene-1,3-disulfonate","InChI=1S/C27H32N2O6S2.Na/c1-5-28(6-2)22-13-9-20(10-14-22)27(21-11-15-23(16-12-21)29(7-3)8-4)25-18-17-24(36(30,31)32)19-26(25)37(33,34)35;/h9-19H,5-8H2,1-4H3,(H-,30,31,32,33,34,35);/q;+1/p-1",SJEYSFABYSGQBG-UHFFFAOYSA-M,[Na+].CCN(CC)c1ccc(cc1)[C+](c2ccc(cc2)N(CC)CC)c3ccc(cc3[S]([O-])(=O)=O)[S]([O-])(=O)=O,-0.406689269,0,1,G1,566.677,1.21039,142.9234,38,8,0,11,11,198,3,0,0,3,120.88,248.0204095,5.07E-06,1363.894525
A-4070,2-chlorophenol,"InChI=1S/C6H5ClO/c7-5-3-1-2-4-6(5)8/h1-4,8H",ISPYQTSUDJAMAB-UHFFFAOYSA-N,Oc1ccccc1Cl,-0.753839202,0.145142687,3,G5,128.558,2.0456,33.1168,8,1,1,2,0,42,1,0,0,1,20.23,52.5289031,3.134861511,164.6383389
A-4073,"4-bromo-1,2-dichlorobenzene",InChI=1S/C6H3BrCl2/c7-4-1-2-5(8)6(9)3-4/h1-3H,CFPZDVAZISWERM-UHFFFAOYSA-N,Clc1ccc(Br)cc1Cl,-1.01149355,0,1,G1,225.9,3.7559,44.162,9,0,0,3,0,48,1,0,0,1,0,71.90548318,3.17167803,222.2978871
A-4074,butyldimethylamine,"InChI=1S/C6H15N/c1-4-5-6-7(2)3/h4-6H2,1-3H3/p+1",DJEQZVQFEPKLOY-UHFFFAOYSA-O,CCCC[NH+](C)C,-0.667032464,0,1,G1,102.201,-0.069,32.5857,7,0,1,1,3,44,0,0,0,0,4.44,46.32379527,2.678257743,33.16125946
A-4075,tetrasodium 4-hydroxy-7-[({5-hydroxy-7-sulfonato-6-[(E)-2-(6-sulfonatonaphthalen-2-yl)diazen-1-yl]naphthalen-2-yl}carbamoyl)amino]-3-[(E)-2-(6-sulfonatonaphthalen-2-yl)diazen-1-yl]naphthalene-2-sulfonate,"InChI=1S/C41H28N6O15S4.4Na/c48-34-20-33(46-44-26-11-12-28-22(15-26)4-2-5-35(28)63(51,52)53)40(66(60,61)62)30-14-10-25(18-32(30)34)43-41(50)42-24-9-13-29-23(16-24)17-37(65(57,58)59)38(39(29)49)47-45-27-8-7-21-3-1-6-36(31(21)19-27)64(54,55)56;;;;/h1-20,44-46H,(H,42,50)(H,51,52,53)(H,54,55,56)(H,57,58,59)(H,60,61,62);;;;/q;4*+1/p-4/b43-25?,47-38+;;;;",NBJHNXDETPQRBX-VHSPQIIZSA-J,[Na+].[Na+].[Na+].[Na+].[O-][S](=O)(=O)c1cccc2cc(NNC3=CC(=O)C4=CC(C=CC4=C3[S]([O-])(=O)=O)=NC(=O)Nc5ccc6C(=O)C(=N/Nc7ccc8cccc(c8c7)[S]([O-])(=O)=O)/C(=Cc6c5)[S]([O-])(=O)=O)ccc12,-0.687217137,0,1,G1,1060.898,-8.2806,233.5751,70,19,4,29,10,336,5,0,3,8,352.85,486.5006183,2.66E-06,3782.0686
A-4076,2-[1-(aminomethyl)cyclohexyl]acetic acid hydrochloride,"InChI=1S/C9H17NO2.ClH/c10-7-9(6-8(11)12)4-2-1-3-5-9;/h1-7,10H2,(H,11,12);1H",XBUDZAQEMFGLEU-UHFFFAOYSA-N,[H+].[Cl-].NCC1(CCCCC1)CC(O)=O,0.019021146,0.013943346,3,G5,207.701,-1.5132,47.9372,13,2,2,4,3,78,0,1,1,1,63.32,86.58649496,0,172.1948894
A-4078,guanidine hydrochloride,"InChI=1S/CH5N3.ClH/c2-1(3)4;/h(H5,2,3,4);1H",PJJJBBJSCAKJQF-UHFFFAOYSA-N,[H+].[Cl-].NC(N)=N,1.352285044,0,1,G1,95.533,-4.04493,17.2135,5,1,3,4,0,32,0,0,0,0,75.89,37.74227504,-4.50E-08,33.77443751
A-4082,"ethane-1,2-diyl bis(3-oxobutanoate)","InChI=1S/C10H14O6/c1-7(11)5-9(13)15-3-4-16-10(14)6-8(2)12/h3-6H2,1-2H3",SJCUPJATWUWGAV-UHFFFAOYSA-N,CC(=O)CC(=O)OCCOC(=O)CC(C)=O,-0.0337559,0,1,G1,230.216,0.031,52.514,16,6,0,6,7,90,0,0,0,0,86.74,92.89690892,3.528183937,263.6843798
A-4083,sodium 4-aminobenzene-1-sulfonate,"InChI=1S/C6H7NO3S.Na/c7-5-1-3-6(4-2-5)11(8,9)10;/h1-4H,7H2,(H,8,9,10);/q;+1/p-1",KSVSZLXDULFGDQ-UHFFFAOYSA-M,[Na+].Nc1ccc(cc1)[S]([O-])(=O)=O,0.037955415,0,1,G1,195.175,-2.8231,38.8176,12,4,1,6,1,60,1,0,0,1,83.22,92.81332945,1.21E-06,345.5608767
A-4084,"1,3,5-trioxane",InChI=1S/C3H6O3/c1-4-2-6-3-5-1/h1-3H2,BGJSXRVXTHVRSN-UHFFFAOYSA-N,C1OCOCO1,0.371717126,0.045403707,2,G3,90.078,-0.0777,17.856,6,3,0,3,0,36,0,1,1,1,27.69,35.80393979,2,21.509775
A-4086,manganese(2+) ion hydrogen phosphate,"InChI=1S/Mn.H3O4P/c;1-5(2,3)4/h;(H3,1,2,3,4)/q+2;/p-2",CPSYWNLKRDURMG-UHFFFAOYSA-L,[Mn++].O[P]([O-])([O-])=O,0.14554717,0,1,G1,150.916,-2.1951,9.8253,6,3,1,6,0,37,0,0,0,0,83.42,44.90224112,0,53.6836744
A-4087,zinc(2+) ion sulfate,"InChI=1S/H2O4S.H2O.Zn/c1-5(2,3)4;;/h(H2,1,2,3,4);1H2;/q;;+2/p-2",RNZCSKGULNFAMC-UHFFFAOYSA-L,O.[Zn++].[O-][S]([O-])(=O)=O,0.070295432,0,1,G1,179.468,-2.1652,14.0884,7,4,0,7,0,40,0,0,0,0,111.76,53.37026402,-8.00E-08,91.24856185
A-4088,disodium oxosilanebis(olate),InChI=1S/2Na.O3Si/c;;1-4(2)3/q2*+1;-2,NTHWMYGWWRZVTN-UHFFFAOYSA-N,[Na+].[Na+].[O-][Si]([O-])=O,0.235635255,0,1,G1,122.063,-8.8696,6.4405,6,3,0,6,0,24,0,0,0,0,63.19,81.24068428,-4.50E-08,31.77443751
A-4091,"sodium 2-{2-[(2,6-dichlorophenyl)amino]phenyl}acetate","InChI=1S/C14H11Cl2NO2.Na/c15-10-5-3-6-11(16)14(10)17-12-7-2-1-4-9(12)8-13(18)19;/h1-7,17H,8H2,(H,18,19);/q;+1/p-1",KPHWPUGNDIVLNH-UHFFFAOYSA-M,[Na+].[O-]C(=O)Cc1ccccc1Nc2c(Cl)cccc2Cl,-1.174231848,0,1,G1,318.135,0.0334,74.8977,20,3,1,6,4,98,2,0,0,2,52.16,148.7439317,2.00E-06,599.6229406
A-4092,"disodium 3,3'-[[6-[bis(2-hydroxyethyl)amino]-1,3,5-triazine-2,4-diyl]bis[imino(3-methoxy-4,1-phenylene)azo]]bis[benzenesulphonate]","InChI=1S/C33H34N10O10S2.2Na/c1-52-29-19-23(41-39-21-5-3-7-25(17-21)54(46,47)48)9-11-27(29)34-31-36-32(38-33(37-31)43(13-15-44)14-16-45)35-28-12-10-24(20-30(28)53-2)42-40-22-6-4-8-26(18-22)55(49,50)51;;/h3-12,17-20,44-45H,13-16H2,1-2H3,(H,46,47,48)(H,49,50,51)(H2,34,35,36,37,38);;/q;2*+1/p-2",NUTZBMSWUMFSIW-UHFFFAOYSA-L,[Na+].[Na+].COc1cc(ccc1Nc2nc(Nc3ccc(cc3OC)N=Nc4cccc(c4)[S]([O-])(=O)=O)nc(n2)N(CCO)CCO)N=Nc5cccc(c5)[S]([O-])(=O)=O,-1.600815525,0,1,G1,838.793,-1.186,195.9274,57,20,4,24,17,288,5,0,0,5,288.73,371.1611195,4.35E-06,2283.532856
A-4093,"2-ethyl-2-{[2-ethyl-3-hydroxy-2-(hydroxymethyl)propoxy]methyl}propane-1,3-diol","InChI=1S/C12H26O5/c1-3-11(5-13,6-14)9-17-10-12(4-2,7-15)8-16/h13-16H,3-10H2,1-2H3",WMYINDVYGQKYMI-UHFFFAOYSA-N,CCC(CO)(CO)COCC(CC)(CO)CO,-1.076302279,0.04635114,2,G3,250.335,-0.235,64.6102,17,5,4,5,10,104,0,0,0,0,90.15,103.0440945,4.27630263,150.8056846
A-4094,methyl 3-sulfanylpropanoate,"InChI=1S/C4H8O2S/c1-6-4(5)2-3-7/h7H,2-3H2,1H3",LDTLDBDUBGAEDT-UHFFFAOYSA-N,COC(=O)CCS,-0.757587608,0,1,G1,120.173,0.4793,30.486,7,3,1,3,2,42,0,0,0,0,26.3,48.26421136,3.002590529,62.71013448
A-4096,sodium 4-[(4-methyl-3-nitrobenzoyl)amino]benzenesulfonate,"InChI=1S/C14H12N2O6S.Na/c1-9-2-3-10(8-13(9)16(18)19)14(17)15-11-4-6-12(7-5-11)23(20,21)22;/h2-8H,1H3,(H,15,17)(H,20,21,22);/q;+1/p-1",YLDIMJOASVRWAO-UHFFFAOYSA-M,[Na+].Cc1ccc(cc1[N+]([O-])=O)C(=O)Nc2ccc(cc2)[S]([O-])(=O)=O,-1.232035998,0,1,G1,358.307,-0.93638,80.1918,24,6,1,10,4,120,2,0,0,2,129.44,159.6247772,2.88E-06,880.6377219
A-4097,(4-methyl-1H-imidazol-5-yl)methanol,"InChI=1S/C5H8N2O/c1-4-5(2-8)7-3-6-4/h3,8H,2H2,1H3,(H,6,7)",AXJZCJSXNZZMDU-UHFFFAOYSA-N,Cc1[nH]cnc1CO,0.268333767,0,1,G1,112.132,0.21042,29.2475,8,2,2,3,1,44,1,0,0,1,48.91,47.3843295,2.922518308,170.6915279
A-4099,potassium dihydrogenorthophosphate,"InChI=1S/K.H3O4P/c;1-5(2,3)4/h;(H3,1,2,3,4)/q+1;/p-1",GNSKLFRGEWLPPA-UHFFFAOYSA-M,[K+].O[P](O)([O-])=O,0.184256269,0,1,G1,136.084,-4.5566,12.0441,6,2,2,6,0,32,0,0,0,0,80.59,77.22918554,0,53.6836744
A-4100,prop-2-enal,"InChI=1S/C3H4O/c1-2-3-4/h2-3H,1H2",HGINCPLSRVDWNT-UHFFFAOYSA-N,C=CC=O,0.569379255,0.200310373,2,G3,56.064,0.3713,16.261,4,1,0,1,1,22,0,0,0,0,17.07,24.94105432,2.732050808,24.26466251
A-4102,cerium(+3) cation; hydrogen sulfate; sulfate; tetrahydrate,"InChI=1S/Ce.2H2O4S.4H2O/c;2*1-5(2,3)4;;;;/h;2*(H2,1,2,3,4);4*1H2/q+3;;;;;;/p-3",ZBNJQJDKRZKDSV-UHFFFAOYSA-K,O.O.O.O.[Ce+3].O[S]([O-])(=O)=O.[O-][S]([O-])(=O)=O,-0.291816974,0,1,G1,405.31,-5.6322,37.2558,15,7,1,15,0,97,0,0,0,0,283.69,118.4496586,-1.28E-08,209.9972447
A-4103,azane; molybdenum; tetracosahydrate,InChI=1S/7Mo.6H3N.24H2O/h;;;;;;;6*1H3;24*1H2,QGAVSDVURUSLQK-UHFFFAOYSA-N,N.N.N.N.N.N.O.O.O.O.O.O.O.O.O.O.O.O.O.O.O.O.O.O.O.O.O.O.O.O.[Mo].[Mo].[Mo].[Mo].[Mo].[Mo].[Mo],-0.766472623,0,1,G1,1206.126,-18.8383,116.8638,37,6,6,37,0,282,0,0,0,0,966,312.4376789,0,47.54941505
A-4104,ammonium perchlorate,"InChI=1S/ClHO4.H3N/c2-1(3,4)5;/h(H,2,3,4,5);1H3",HHEFNVCDPLQQTP-UHFFFAOYSA-N,[NH4+].[O-][Cl](=O)(=O)=O,0.243662836,0,1,G1,117.488,-4.3798,5.9848,6,4,1,6,0,40,0,0,0,0,128.74,36.14765255,0,23.01955001
A-4105,"Cuprate(6-), [2-[[[[3-[[4-chloro-6-[[4-[[4-chloro-6-[(3-sulfophenyl)amino]-1,3,5-triazin-2-yl]amino]-2,5-disulfophenyl]amino]-1,3,5-triazin-2-yl]amino]-2-hydroxy-5-sulfophenyl]azo]phenylmethyl]azo]-5-sulfobenzoato(8-)]-, pentasodium hydrogen, (SP-4-3)-","InChI=1S/C38H28Cl2N14O18S5.Cu.5Na/c39-33-45-35(41-18-7-4-8-19(11-18)73(58,59)60)49-36(46-33)42-24-15-29(77(70,71)72)25(16-28(24)76(67,68)69)43-37-47-34(40)48-38(50-37)44-26-13-21(75(64,65)66)14-27(30(26)55)52-54-31(17-5-2-1-3-6-17)53-51-23-10-9-20(74(61,62)63)12-22(23)32(56)57;;;;;;/h1-16H,(H12,41,42,43,44,45,46,47,48,49,50,51,52,53,54,55,56,57,58,59,60,61,62,63,64,65,66,67,68,69,70,71,72);;;;;;/q;+2;5*+1/p-7",NKKZYKFZYINUQZ-UHFFFAOYSA-G,[Na+].[Na+].[Na+].[Na+].[Na+].[Cu++].[O-]C(=O)c1cc(ccc1NNC(=N/Nc2cc(cc([N-]c3nc(Cl)nc(n3)N=C4C=C(C(C=C4[S]([O-])(=O)=O)=Nc5nc(Cl)nc(Nc6cccc(c6)[S]([O-])(=O)=O)n5)[S]([O-])(=O)=O)c2[O-])[S]([O-])(=O)=O)\c7ccccc7)[S]([O-])(=O)=O.[H+],-0.825411234,0,1,G1,1371.403,-14.1693,256.8503,83,30,4,45,17,411,6,0,1,7,525.83,601.591931,9.84E-06,4234.897334
A-4106,2-methylprop-2-enamide,"InChI=1S/C4H7NO/c1-3(2)4(5)6/h1H2,2H3,(H2,5,6)",FQPSGWSUVKBHSU-UHFFFAOYSA-N,CC(=C)C(N)=O,0.37539119,0.152675685,2,G3,85.106,0.0478,24.0084,6,1,1,2,1,34,0,0,0,0,43.09,36.64588714,3.567703455,73.54887502
A-4107,"hexasodium 2-{[4-(diethylamino)-6-({4-[(E)-2-(4-{[4-(diethylamino)-6-[(2,5-disulfonatophenyl)amino]-1,3,5-triazin-2-yl]amino}-2-sulfonatophenyl)ethenyl]-3-sulfonatophenyl}amino)-1,3,5-triazin-2-yl]amino}benzene-1,4-disulfonate","InChI=1S/C40H44N12O18S6.6Na/c1-5-51(6-2)39-47-35(45-37(49-39)43-29-21-27(71(53,54)55)15-17-31(29)73(59,60)61)41-25-13-11-23(33(19-25)75(65,66)67)9-10-24-12-14-26(20-34(24)76(68,69)70)42-36-46-38(50-40(48-36)52(7-3)8-4)44-30-22-28(72(56,57)58)16-18-32(30)74(62,63)64;;;;;;/h9-22H,5-8H2,1-4H3,(H,53,54,55)(H,56,57,58)(H,59,60,61)(H,62,63,64)(H,65,66,67)(H,68,69,70)(H2,41,43,45,47,49)(H2,42,44,46,48,50);;;;;;/q;6*+1/p-6/b10-9+;;;;;;",KMPSLWWDIJFERN-PTNBLCRGSA-H,[Na+].[Na+].[Na+].[Na+].[Na+].[Na+].CCN(CC)c1nc(Nc2ccc(\C=C\c3ccc(Nc4nc(Nc5cc(ccc5[S]([O-])(=O)=O)[S]([O-])(=O)=O)nc(n4)N(CC)CC)cc3[S]([O-])(=O)=O)c(c2)[S]([O-])(=O)=O)nc(Nc6cc(ccc6[S]([O-])(=O)=O)[S]([O-])(=O)=O)n1,-0.812249023,0,1,G1,1305.152,-15.6576,262.382,82,30,4,42,22,408,6,0,0,6,475.14,604.96591,1.09E-05,3751.936237
A-4108,2-(methylamino)-1-phenylpropan-1-ol hydrochloride,"InChI=1S/C10H15NO.ClH/c1-8(11-2)10(12)9-6-4-3-5-7-9;/h3-8,10-12H,1-2H3;1H/t8-,10-;/m0./s1",BALXUFOVQVENIU-GNAZCLTHSA-N,[Cl-].CN[C@@H](C)[C@H](O)c1ccccc1.[H+],-0.003669443,0,1,G1,201.697,-1.5556,51.0355,13,2,2,3,3,74,1,0,0,1,32.26,86.87315913,0,232.8234245
A-4110,sodium 3-nitrobenzene-1-sulfonate,"InChI=1S/C6H5NO5S.Na/c8-7(9)5-2-1-3-6(4-5)13(10,11)12;/h1-4H,(H,10,11,12);/q;+1/p-1",LJRGBERXYNQPJI-UHFFFAOYSA-M,[Na+].[O-][N+](=O)c1cccc(c1)[S]([O-])(=O)=O,-0.051455458,0.783585663,4,G4,225.157,-2.4971,41.0596,14,5,0,8,2,70,1,0,0,1,100.34,102.1264145,1.69E-06,443.2900153
A-4112,"2,6,6-trimethylcyclohex-2-ene-1,4-dione","InChI=1S/C9H12O2/c1-6-4-7(10)5-9(2,3)8(6)11/h4H,5H2,1-3H3",AYJXHIDNNLJQDT-UHFFFAOYSA-N,CC1=CC(=O)CC(C)(C)C1=O,-0.87790415,0,1,G1,152.193,1.5008,42.169,11,2,0,2,0,60,0,0,1,1,34.14,66.28639796,3.054290083,246.2883479
A-4114,2-[4-(2-hydroxyethoxy)but-2-ynoxy]ethanol,"InChI=1S/C8H14O4/c9-3-7-11-5-1-2-6-12-8-4-10/h9-10H,3-8H2",IXAWTPMDMPUGLV-UHFFFAOYSA-N,OCCOCC#CCOCCO,0.758961822,0,1,G1,174.196,-0.9924,43.5856,12,4,2,4,6,70,0,0,0,0,58.92,72.10862918,3.008198508,121.7286241
A-4115,"2-hydroxy-3,5-dinitrobenzoic acid","InChI=1S/C7H4N2O7/c10-6-4(7(11)12)1-3(8(13)14)2-5(6)9(15)16/h1-2,10H,(H,11,12)",LWFUFLREGJMOIZ-UHFFFAOYSA-N,OC(=O)c1cc(cc(c1O)[N+]([O-])=O)[N+]([O-])=O,-1.057125752,0,1,G1,228.116,0.9068,48.3749,16,6,2,9,3,84,1,0,0,1,143.81,86.85228628,3.572754538,460.5038631
A-4116,2-phenylethan-1-ol,"InChI=1S/C8H10O/c9-7-6-8-4-2-1-3-5-8/h1-5,9H,6-7H2",WRMNZCZEMHIOCP-UHFFFAOYSA-N,OCCc1ccccc1,-0.785923914,0.042284079,3,G5,122.167,1.2214,37.2318,9,1,1,1,2,48,1,0,0,1,20.23,54.9555211,2.61489994,157.4784208
A-4119,ethenyl acetate,"InChI=1S/C4H6O2/c1-3-6-4(2)5/h3H,1H2,2H3",XTXRWKRVRITETP-UHFFFAOYSA-N,CC(=O)OC=C,-0.633922712,0,1,G1,86.09,0.693,21.963,6,2,0,2,1,34,0,0,0,0,26.3,36.41954167,3.046489081,65.9483369
A-4123,salicylonitrile,"InChI=1S/C7H5NO/c8-5-6-3-1-2-4-7(6)9/h1-4,9H",CHZCERSEMVWNHL-UHFFFAOYSA-N,Oc1ccccc1C#N,-0.774965627,0.095408242,3,G5,119.123,1.26388,32.8218,9,2,1,2,0,44,1,0,0,1,44.02,52.98315867,3.199326439,249.338218
A-4124,"sodium 1-amino-4-bromo-9,10-dioxo-9,10-dihydroanthracene-2-sulfonate","InChI=1S/C14H8BrNO5S.Na/c15-8-5-9(22(19,20)21)12(16)11-10(8)13(17)6-3-1-2-4-7(6)14(11)18;/h1-5H,16H2,(H,19,20,21);/q;+1/p-1",TXMRAEGWZZVGIH-UHFFFAOYSA-M,[Na+].Nc1c(cc(Br)c2C(=O)c3ccccc3C(=O)c12)[S]([O-])(=O)=O,-1.305537302,0,1,G1,404.173,-1.2852,79.8246,23,6,1,9,1,112,2,0,1,3,117.36,161.7850685,1.92E-06,971.3731867
A-4125,trimethylsilane,InChI=1S/C3H9Si/c1-4(2)3/h1-3H3,DCERHCFNWRGHLK-UHFFFAOYSA-N,C[Si](C)C,-0.563427685,0.651603458,2,G2,73.191,1.3706,23.346,4,0,0,1,0,25,0,0,0,0,0,29.44679712,2.323790008,8
A-4126,"2-benzofuran-1,3-dione; 2-(2-hydroxyethoxy)ethanol","InChI=1S/C8H4O3.C4H10O3/c9-7-5-3-1-2-4-6(5)8(10)11-7;5-1-3-7-4-2-6/h1-4H;5-6H,1-4H2",ZLBFMYQIKPWYBC-UHFFFAOYSA-N,OCCOCCO.O=C1OC(=O)c2ccccc12,-1.405240463,0,1,G1,254.238,-0.0152,61.1786,18,6,2,6,4,98,1,0,1,2,93.06,103.759658,2.03E-07,377.7835918
A-4127,"disodium (4Z)-3-hydroxy-4-[2-(2-hydroxy-3,5-dinitrophenyl)hydrazin-1-ylidene]cyclohexa-2,5-dien-1-one 4-nitroaniline 3-aminobenzene-1-sulfonate 5-amino-2-(phenylamino)benzene-1-sulfonate iron","InChI=1S/C12H8N4O7.C12H12N2O3S.C6H6N2O2.C6H7NO3S.Fe.2Na/c17-7-1-2-8(11(18)5-7)13-14-9-3-6(15(20)21)4-10(12(9)19)16(22)23;13-9-6-7-11(12(8-9)18(15,16)17)14-10-4-2-1-3-5-10;7-5-1-3-6(4-2-5)8(9)10;7-5-2-1-3-6(4-5)11(8,9)10;;;/h1-5,14,18-19H;1-8,14H,13H2,(H,15,16,17);1-4H,7H2;1-4H,7H2,(H,8,9,10);;;/q;;;;;2*+1/p-2/b13-8-;;;;;;",GPGKAHBGRXSZGY-DULHVBCPSA-L,[Na+].[Na+].[Fe].Nc1ccc(cc1)[N+]([O-])=O.Nc2cccc(c2)[S]([O-])(=O)=O.Nc3ccc(Nc4ccccc4)c(c3)[S]([O-])(=O)=O.OC\5=CC(=O)C=CC5=N/Nc6cc(cc(c6O)[N+]([O-])=O)[N+]([O-])=O,-2.526815423,0,1,G1,995.651,-1.1708,222.2008,65,21,7,29,9,332,5,0,1,6,415.83,422.8553521,8.71E-07,2822.706749
A-4128,benzoic acid,"InChI=1S/C7H6O2/c8-7(9)6-4-2-1-3-5-6/h1-5H,(H,8,9)",WPYMKLBDIGXBTP-UHFFFAOYSA-N,OC(=O)c1ccccc1,-1.619929844,0.045222606,3,G5,122.123,1.3848,33.4013,9,1,1,2,1,46,1,0,0,1,37.3,52.75210109,2.981454614,203.4159526
A-4130,"6-hydroxy-1,4-dihydropyrimidin-4-one","InChI=1S/C4H4N2O2/c7-3-1-4(8)6-2-5-3/h1-2H,(H2,5,6,7,8)",DUFGYCAXVIUXIP-UHFFFAOYSA-N,OC1=CC(=O)NC=N1,-1.587161122,0.264027189,4,G5,112.088,-0.5245,26.5225,8,3,2,4,0,42,1,0,0,1,65.98,44.82645493,3.27741746,229.4799615
A-4132,benzyl formate,"InChI=1S/C8H8O2/c9-7-10-6-8-4-2-1-3-5-8/h1-5,7H,6H2",UYWQUFXKFGHYNT-UHFFFAOYSA-N,O=COCc1ccccc1,-1.673119803,0,1,G1,136.15,1.3596,37.295,10,2,0,2,3,52,1,0,0,1,26.3,59.43635468,2.498770853,193.6723817
A-4133,1-ethoxybutane,"InChI=1S/C6H14O/c1-3-5-6-7-4-2/h3-6H2,1-2H3",PZHIWRCQKBBTOW-UHFFFAOYSA-N,CCCCOCC,-1.54996066,0,1,G1,102.177,1.823,31.401,7,1,0,1,4,44,0,0,0,0,9.23,45.67750683,2.447472888,23.3609904
A-4136,"1,1,3,3-tetramethylbutyl hydroperoxide","InChI=1S/C20H14N6O6S/c1-2-32-19(29)15(23-22-11-7-9-12(10-8-11)26(30)31)16(27)18-24-25-14-6-4-3-5-13(14)17(28)21-20(25)33-18/h3-10,22H,2H2,1H3/b23-15+",KBAQMIYTOZVRBC-HZHRSRAPSA-N,CCOC(=O)C(=N/Nc1ccc(cc1)[N+]([O-])=O)/C(=O)C2=NN3C(=NC(=O)c4ccccc34)S2,-2.2216331,0,1,G1,466.435,2.4263,119.7576,33,12,1,13,7,166,4,0,0,4,158.16,187.8380411,1.718091457,1490.746949
A-4138,1-carbamimidamido-N-(2-methylphenyl)methanimidamide,"InChI=1S/C9H13N5/c1-6-4-2-3-5-7(6)13-9(12)14-8(10)11/h2-5H,1H3,(H6,10,11,12,13,14)",SQZCAOHYQSOZCE-UHFFFAOYSA-N,Cc1ccccc1N=C(N)N=C(N)N,-1.842241499,0,1,G1,191.238,0.21462,58.2712,14,1,3,5,1,74,1,0,0,1,102.78,82.33654653,2.977735832,376.5436331
A-4142,2-(5-ethenyl-5-methyloxolan-2-yl)propan-2-ol,"InChI=1S/C10H18O2/c1-5-10(4)7-6-8(12-10)9(2,3)11/h5,8,11H,1,6-7H2,2-4H3",BRHDDEIRQPDPMG-UHFFFAOYSA-N,CC(C)(O)C1CCC(C)(O1)C=C,-1.799728458,0,1,G1,170.252,1.881,49.0068,12,2,1,2,2,70,0,1,1,1,29.46,74.23607485,2.625476627,180.7678258
A-4143,N-(2-methylphenyl)-3-oxobutanamide,"InChI=1S/C11H13NO2/c1-8-5-3-4-6-10(8)12-11(14)7-9(2)13/h3-6H,7H2,1-2H3,(H,12,14)",TVZIWRMELPWPPR-UHFFFAOYSA-N,CC(=O)CC(=O)Nc1ccccc1C,-1.850192261,0.022878745,2,G3,191.23,1.91262,55.1067,14,2,1,3,3,74,1,0,0,1,46.17,83.12902008,2.649628786,358.0600935
A-4144,[1-(carbamoylamino)-2-methylpropyl]urea,"InChI=1S/C6H14N4O2/c1-3(2)4(9-5(7)11)10-6(8)12/h3-4H,1-2H3,(H3,7,9,11)(H3,8,10,12)",QFHMNFAUXJAINK-UHFFFAOYSA-N,CC(C)C(NC(N)=O)NC(N)=O,-1.809694359,0.477121255,2,G3,174.204,-0.6949,44.0642,12,2,4,6,3,70,0,0,0,0,110.24,70.66651156,4.039696096,164.3868988
A-4145,"2-Chloro-1,1-difluoroethane","InChI=1S/C2H3ClF2/c3-1-2(4)5/h2H,1H2",ATEBGNALLCMSGS-UHFFFAOYSA-N,FC(F)CCl,-0.922963208,0,1,G1,100.495,1.4903,16.724,5,0,0,3,1,32,0,0,0,0,0,33.73853017,2.539538861,21.60964047
A-4146,"2,2'-(1,3-phenylene)dipropan-2-ol","InChI=1S/C12H18O2/c1-11(2,13)9-6-5-7-10(8-9)12(3,4)14/h5-8,13-14H,1-4H3",UGPWRRVOLLMHSC-UHFFFAOYSA-N,CC(C)(O)c1cccc(c1)C(C)(C)O,-1.863533046,0.033240029,2,G3,194.274,2.1414,56.9316,14,2,2,2,2,78,1,0,0,1,40.46,85.20952331,3.148163892,286.5789935
A-4147,2-ethyl-6-methylaniline,"InChI=1S/C9H13N/c1-3-8-6-4-5-7(2)9(8)10/h4-6H,3,10H2,1-2H3",JJVKJJNCIILLRP-UHFFFAOYSA-N,CCc1cccc(C)c1N,-1.706127176,0.065710432,2,G3,135.21,2.13962,44.9694,10,1,1,1,1,54,1,0,0,1,26.02,61.86612016,3.143039481,228.1699174
A-4149,calcium sulfate,"InChI=1S/Ca.H2O4S/c;1-5(2,3)4/h;(H2,1,2,3,4)/q+2;/p-2",OSGAYBCDTDRGGQ-UHFFFAOYSA-L,[Ca++].[O-][S]([O-])(=O)=O,-1.715687645,0.024468842,3,G5,136.141,-1.7188,16.2286,6,4,0,6,0,32,0,0,0,0,80.26,65.12195055,0,90.71649287
A-4151,N-(4-methoxyphenyl)-3-oxobutanamide,"InChI=1S/C11H13NO3/c1-8(13)7-11(14)12-9-3-5-10(15-2)6-4-9/h3-6H,7H2,1-2H3,(H,12,14)",SWAJJKROCOJICG-UHFFFAOYSA-N,COc1ccc(NC(=O)CC(C)=O)cc1,-1.901477183,0,1,G1,207.229,1.6128,56.9217,15,3,1,4,4,80,1,0,0,1,55.4,88.2425653,2.568573653,356.6007128
A-4152,"2-methyl-4-phenyl-1,3-dioxolane","InChI=1S/C10H12O2/c1-8-11-7-10(12-8)9-5-3-2-4-6-9/h2-6,8,10H,7H2,1H3",YPPGSWWESBCSCT-UHFFFAOYSA-N,CC1OCC(O1)c2ccccc2,-1.805450609,0,1,G1,164.204,2.1205,45.682,12,2,0,2,1,64,1,1,1,2,18.46,72.11243088,2.113241499,245.275309
A-4153,3-methyl-5-propylcyclohex-2-en-1-one,"InChI=1S/C10H16O/c1-3-4-9-5-8(2)6-10(11)7-9/h6,9H,3-5,7H2,1-2H3",URQMEZRQHLCJKR-UHFFFAOYSA-N,CCCC1CC(=CC(=O)C1)C,-1.772587094,0,1,G1,152.237,2.7119,46.396,11,1,0,1,2,62,0,0,1,1,17.07,68.48981797,2.498782232,179.3117986
A-4154,4-cyanophenyl acetate,"InChI=1S/C9H7NO2/c1-7(11)12-9-4-2-8(6-10)3-5-9/h2-5H,1H3",CJGXWABHYYJNJH-UHFFFAOYSA-N,CC(=O)Oc1ccc(cc1)C#N,-1.799017293,0,1,G1,161.16,1.48358,42.466,12,3,0,3,1,60,1,0,0,1,50.09,70.19387647,2.795385188,321.3769264
A-4156,"(2S)-2-(1,3-dioxoisoindol-2-yl)pentanedioic acid","InChI=1S/C13H11NO6/c15-10(16)6-5-9(13(19)20)14-11(17)7-3-1-2-4-8(7)12(14)18/h1-4,9H,5-6H2,(H,15,16)(H,19,20)/t9-/m0/s1",FEFFSKLJNYRHQN-VIFPVBQESA-N,OC(=O)CC[C@H](N1C(=O)c2ccccc2C1=O)C(O)=O,-1.446331686,0,1,G1,277.232,0.6006,65.2356,20,4,2,7,5,104,1,0,1,2,111.98,112.9745563,2.321089232,573.6338737