ID,Name,InChI,InChIKey,SMILES,Solubility,SD,Ocurrences,Group,MolWt,MolLogP,MolMR,HeavyAtomCount,NumHAcceptors,NumHDonors,NumHeteroatoms,NumRotatableBonds,NumValenceElectrons,NumAromaticRings,NumSaturatedRings,NumAliphaticRings,RingCount,TPSA,LabuteASA,BalabanJ,BertzCT
A-396,"hexasodium 4-amino-3-[2-(5-{[4-chloro-6-({3-[2-(sulfonatooxy)ethanesulfonyl]phenyl}amino)-1,3,5-triazin-2-yl]amino}-2-sulfonatophenyl)diazen-1-yl]-6-[2-(1,5-disulfonatonaphthalen-2-yl)diazen-1-yl]-5-hydroxynaphthalene-2,7-disulfonate","InChI=1S/C37H29ClN10O22S7.6Na/c38-35-42-36(40-18-3-1-4-20(15-18)71(50,51)12-11-70-77(67,68)69)44-37(43-35)41-19-7-10-26(73(55,56)57)24(16-19)46-47-31-27(74(58,59)60)13-17-14-28(75(61,62)63)32(33(49)29(17)30(31)39)48-45-23-9-8-21-22(34(23)76(64,65)66)5-2-6-25(21)72(52,53)54;;;;;;/h1-10,13-16,49H,11-12,39H2,(H,52,53,54)(H,55,56,57)(H,58,59,60)(H,61,62,63)(H,64,65,66)(H,67,68,69)(H2,40,41,42,43,44);;;;;;/q;6*+1/p-6",CRBABZUVIKGIMW-UHFFFAOYSA-H,[Na+].[Na+].[Na+].[Na+].[Na+].[Na+].Nc1c(N=Nc2cc(Nc3nc(Cl)nc(Nc4cccc(c4)[S](=O)(=O)CCO[S]([O-])(=O)=O)n3)ccc2[S]([O-])(=O)=O)c(cc5cc(c(N=Nc6ccc7c(cccc7[S]([O-])(=O)=O)c6[S]([O-])(=O)=O)c(O)c15)[S]([O-])(=O)=O)[S]([O-])(=O)=O,-1.277021164,0.210681394,2,G3,1357.501,-14.7678,254.1296,83,32,4,46,18,408,7,0,0,7,544.99,608.0427692,5.74E-06,4584.921612
A-397,"1,1,2,2,3,3,4-heptafluorocyclopentane","InChI=1S/C5H3F7/c6-2-1-3(7,8)5(11,12)4(2,9)10/h2H,1H2",IDBYQQQHBYGLEQ-UHFFFAOYSA-N,FC1CC(F)(F)C(F)(F)C1(F)F,-2.436880918,0,1,G1,196.065,2.6341,24.354,12,0,0,7,0,72,0,1,1,1,0,62.35193615,3.099777273,195.9734163
A-398,tributyl[(tributylstannyl)oxy]stannane,"InChI=1S/6C4H9.O.2Sn/c6*1-3-4-2;;;/h6*1,3-4H2,2H3;;;",APQHKWPGGHMYKJ-UHFFFAOYSA-N,CCCC[Sn](CCCC)(CCCC)O[Sn](CCCC)(CCCC)CCCC,-3.922851514,0,1,G1,596.117,9.6946,130.883,27,1,0,3,20,164,0,0,0,0,9.23,182.5799434,5.663274909,245.9541588
A-400,"Hydrocarbons, C5-rich","InChI=1S/C5H12/c1-3-5-4-2/h3-5H2,1-2H3",OFBQJSOFQDEBGM-UHFFFAOYSA-N,CCCCC,-3.006984006,0.421426337,8,G5,72.151,2.1965,25.199,5,0,0,0,2,32,0,0,0,0,0,34.19901949,2.190609687,7.509775004
A-402,2-methoxy-4-[(1E)-prop-1-en-1-yl]phenol,"InChI=1S/C10H12O2/c1-3-4-8-5-6-9(11)10(7-8)12-2/h3-7,11H,1-2H3/b4-3+",BJIOGJUNALELMI-ONEGZZNKSA-N,COc1cc(\C=C\C)ccc1O,-2.364737497,0,1,G1,164.204,2.4339,49.3668,12,2,1,2,2,64,1,0,0,1,29.46,72.10934753,3.045828965,289.8900955
A-403,"3,4-dimethylbenzaldehyde","InChI=1S/C9H10O/c1-7-3-4-9(6-10)5-8(7)2/h3-6H,1-2H3",POQJHLBMLVTHAU-UHFFFAOYSA-N,Cc1ccc(C=O)cc1C,-2.277035079,0,1,G1,134.178,2.11594,41.3035,10,1,0,1,1,52,1,0,0,1,17.07,60.68775156,3.158901732,250.9052209
A-405,"1-phenylethan-1-aminium hydrate hydrogen [(2R,3S)-3-methyloxiran-2-yl]phosphonate","InChI=1S/C8H11N.C3H7O4P.H2O/c1-7(9)8-5-3-2-4-6-8;1-2-3(7-2)8(4,5)6;/h2-7H,9H2,1H3;2-3H,1H3,(H2,4,5,6);1H2/t;2-,3+;/m.0./s1",XDXCFDPDYZSCAG-AFHMRPNKSA-N,O.CC([NH3+])c1ccccc1.C[C@@H]2O[C@@H]2[P](O)([O-])=O,-0.594139338,0,1,G1,277.257,-0.5583,65.5192,18,3,2,7,2,104,1,1,1,2,132.03,106.241711,3.06E-07,391.6798625
A-407,"disodium 2-(2,4,5,7-tetraiodo-6-oxido-3-oxoxanthen-9-yl)benzoate","InChI=1S/C20H8I4O5.2Na/c21-11-5-9-13(7-3-1-2-4-8(7)20(27)28)10-6-12(22)17(26)15(24)19(10)29-18(9)14(23)16(11)25;;/h1-6,25H,(H,27,28);;/q;2*+1/p-2",IINNWAYUJNWZRM-UHFFFAOYSA-L,[Na+].[Na+].[O-]C(=O)c1ccccc1C2=C3C=C(I)C(=O)C(=C3Oc4c(I)c([O-])c(I)cc24)I,-1.099315041,0.054572235,2,G3,879.859,-1.5717,139.1865,31,5,0,11,2,146,2,0,2,4,93.4,275.1617033,1.71E-06,1370.393242
A-409,butyl acetate,"InChI=1S/C6H12O2/c1-3-4-5-8-6(2)7/h3-5H2,1-2H3",DKPFZGUDAPQIHT-UHFFFAOYSA-N,CCCCOC(C)=O,-1.219958563,0.148206266,6,G5,116.16,1.3496,31.541,8,2,0,2,3,48,0,0,0,0,26.3,49.83902893,2.822354554,68.92878689
A-410,"4,4'-diaminobiphenyl-2,2'-disulfonic acid","InChI=1S/C12H12N2O6S2/c13-7-1-3-9(11(5-7)21(15,16)17)10-4-2-8(14)6-12(10)22(18,19)20/h1-6H,13-14H2,(H,15,16,17)(H,18,19,20)",MBJAPGAZEWPEFB-UHFFFAOYSA-N,Nc1ccc(c2ccc(N)cc2[S](O)(=O)=O)c(c1)[S](O)(=O)=O,-2.691927271,0.034092931,2,G3,344.37,1.0114,80.332,22,6,4,10,3,118,2,0,0,2,160.78,126.4255507,2.904291837,872.0769292
A-411,4-hydroxy-3-methoxy-5-nitrobenzaldehyde,"InChI=1S/C8H7NO5/c1-14-7-3-5(4-10)2-6(8(7)11)9(12)13/h2-4,11H,1H3",ZEHYRTJBFMZHCY-UHFFFAOYSA-N,COc1cc(C=O)cc(c1O)[N+]([O-])=O,-2.44968993,0,1,G1,197.146,1.1215,46.7007,14,5,1,6,3,74,1,0,0,1,89.67,78.88356415,3.410012363,387.5631831
A-412,N-[3-(diethylamino)phenyl]acetamide,"InChI=1S/C12H18N2O/c1-4-14(5-2)12-8-6-7-11(9-12)13-10(3)15/h6-9H,4-5H2,1-3H3,(H,13,15)",FPUKYOSOAAPHTN-UHFFFAOYSA-N,CCN(CC)c1cccc(NC(C)=O)c1,-2.469378031,0,1,G1,206.289,2.4912,64.3067,15,2,1,3,4,82,1,0,0,1,32.34,91.09227376,2.856387016,332.1489336
A-415,plumbanone,InChI=1S/O.Pb,YEXPOXQUZXUXJW-UHFFFAOYSA-N,O=[Pb],-3.502355132,0,1,G1,223.199,-0.4996,6.4405,2,1,0,2,0,10,0,0,0,0,17.07,28.82298985,2,2
A-416,"1,3-bis(2-methylphenyl)guanidine","InChI=1S/C15H17N3/c1-11-7-3-5-9-13(11)17-15(16)18-14-10-6-4-8-12(14)2/h3-10H,1-2H3,(H3,16,17,18)",OPNUROKCUBTKLF-UHFFFAOYSA-N,Cc1ccccc1NC(N)=Nc2ccccc2C,-3.533884584,0,1,G1,239.322,3.36174,77.2631,18,1,2,3,2,92,2,0,0,2,50.41,107.368399,2.204665535,573.4563266
A-420,"2-ethylpentyl 3-(3,5-ditert-butyl-4-hydroxyphenyl)propanoate","InChI=1S/C24H40O3/c1-9-11-17(10-2)16-27-21(25)13-12-18-14-19(23(3,4)5)22(26)20(15-18)24(6,7)8/h14-15,17,26H,9-13,16H2,1-8H3",PJZFNEYJOZUEGS-UHFFFAOYSA-N,CCCC(CC)COC(=O)CCc1cc(c(O)c(c1)C(C)(C)C)C(C)(C)C,-7.09873715,3.270213533,4,G4,376.581,6.2893,113.4758,27,3,1,3,8,154,1,0,0,1,46.53,166.0696623,2.897579435,582.4890607
A-421,Longifolene,"InChI=1S/C15H24/c1-10-11-6-7-12-13(11)14(2,3)8-5-9-15(10,12)4/h11-13H,1,5-9H2,2-4H3",PDSNLYSELAIEBU-UHFFFAOYSA-N,CC1(C)CCCC2(C)C3CCC(C13)C2=C,-4.412762427,0,1,G1,204.357,4.415,64.583,15,0,0,0,0,84,0,3,3,3,0,94.14134414,2.097171261,312
A-422,2-phenylethyl 2-hydroxybenzoate,"InChI=1S/C15H14O3/c16-14-9-5-4-8-13(14)15(17)18-11-10-12-6-2-1-3-7-12/h1-9,16H,10-11H2",YNMSDIQQNIRGDP-UHFFFAOYSA-N,Oc1ccccc1C(=O)OCCc2ccccc2,-4.489105335,0,1,G1,242.274,2.7917,68.5353,18,3,1,3,4,92,2,0,0,2,46.53,105.6526248,1.878810273,520.2717402
A-425,"propane-1,2-diyl dibenzoate","InChI=1S/C17H16O4/c1-13(21-17(19)15-10-6-3-7-11-15)12-20-16(18)14-8-4-2-5-9-14/h2-11,13H,12H2,1H3",UMVMVEZHMZTUHD-UHFFFAOYSA-N,CC(COC(=O)c1ccccc1)OC(=O)c2ccccc2,-4.567302938,0,1,G1,284.311,3.0889,78.044,21,4,0,4,5,108,2,0,0,2,52.6,122.8633426,1.812348597,592.7018774
A-426,tricalcium diphosphate,"InChI=1S/3Ca.2H3O4P/c;;;2*1-5(2,3)4/h;;;2*(H3,1,2,3,4)/q3*+2;;/p-6",QORWJWZARLRLPR-UHFFFAOYSA-H,[Ca++].[Ca++].[Ca++].[O-][P]([O-])([O-])=O.[O-][P]([O-])([O-])=O,-4.605114666,0.034462678,2,G3,310.174,-6.7916,32.475,13,8,0,13,0,64,0,0,0,0,172.5,163.5920679,-2.67E-08,129.6986276
A-427,2-(2-methylbutan-2-yl)cyclohexyl acetate,"InChI=1S/C13H24O2/c1-5-13(3,4)11-8-6-7-9-12(11)15-10(2)14/h11-12H,5-9H2,1-4H3",YEVACTAGDANHRH-UHFFFAOYSA-N,CCC(C)(C)C1CCCCC1OC(C)=O,-4.446203904,0,1,G1,212.333,3.5445,61.584,15,2,0,2,3,88,0,1,1,1,26.3,93.38779258,2.687271884,220.5758426
A-429,2-cyclohexylidene-2-phenylacetonitrile,"InChI=1S/C14H15N/c15-11-14(12-7-3-1-4-8-12)13-9-5-2-6-10-13/h1,3-4,7-8H,2,5-6,9-10H2",ZHOOOLQOWQVYOE-UHFFFAOYSA-N,N#C[C](=[C]1CC[CH2]CC1)c2ccccc2,-4.420023997,0,1,G1,197.281,3.92788,62.06,15,1,0,1,1,76,1,1,1,2,23.79,91.04808553,2.351332949,387.0969189
A-431,"2-{2-[(2,6-dichlorophenyl)amino]phenyl}acetic acid","InChI=1S/C14H11Cl2NO2/c15-10-5-3-6-11(16)14(10)17-12-7-2-1-4-9(12)8-13(18)19/h1-7,17H,8H2,(H,18,19)",DCOPUUMXTXDBNB-UHFFFAOYSA-N,OC(=O)Cc1ccccc1Nc2c(Cl)cccc2Cl,-4.620257788,0.676375108,5,G4,296.153,4.3641,77.5265,19,2,2,5,4,98,2,0,0,2,49.33,120.330532,2.355887944,593.8950014
A-432,"1,1'-ethane-1,2-diylbis(4-nitrobenzene)","InChI=1S/C14H12N2O4/c17-15(18)13-7-3-11(4-8-13)1-2-12-5-9-14(10-6-12)16(19)20/h3-10H,1-2H2",BSNKHEKTRWNNAC-UHFFFAOYSA-N,[O-][N+](=O)c1ccc(CCc2ccc(cc2)[N+]([O-])=O)cc1,-4.5898858,0,1,G1,272.26,3.2882,73.6008,20,4,0,6,5,102,2,0,0,2,86.28,114.524333,1.973886716,563.1270925
A-433,"4-(2,4,4-trimethylpentan-2-yl)phenol","InChI=1S/C14H22O/c1-13(2,3)10-14(4,5)11-6-8-12(15)9-7-11/h6-9,15H,10H2,1-5H3",ISAVYTVYFVQUDY-UHFFFAOYSA-N,CC(C)(C)CC(C)(C)c1ccc(O)cc1,-4.469462233,0,1,G1,206.329,4.106,65.2048,15,1,1,1,2,84,1,0,0,1,20.23,93.14517379,2.904264413,314.1870914
A-434,4-nonylphenol,"InChI=1S/C15H24O/c1-2-3-4-5-6-7-8-9-14-10-12-15(16)13-11-14/h10-13,16H,2-9H2,1H3",IGFHQQFPSIBGKE-UHFFFAOYSA-N,CCCCCCCCCc1ccc(O)cc1,-4.49802684,0,1,G1,220.356,4.6853,69.8038,16,1,1,1,8,90,1,0,0,1,20.23,99.5101159,2.005636511,263.2683698
A-435,N-(4-carbamoylphenyl)-4-methoxy-3-nitrobenzamide,"InChI=1S/C15H13N3O5/c1-23-13-7-4-10(8-12(13)18(21)22)15(20)17-11-5-2-9(3-6-11)14(16)19/h2-8H,1H3,(H2,16,19)(H,17,20)",JXHSJUAPWJKPLE-UHFFFAOYSA-N,COc1ccc(cc1[N+]([O-])=O)C(=O)Nc2ccc(cc2)C(N)=O,-4.653605269,0,1,G1,315.285,1.9546,82.5615,23,5,2,8,5,118,2,0,0,2,124.56,130.5626417,2.216587583,771.1818582
A-436,dimethyl(octadecyl)amine,"InChI=1S/C20H43N.ClH/c1-4-5-6-7-8-9-10-11-12-13-14-15-16-17-18-19-20-21(2)3;/h4-20H2,1-3H3;1H",PFKRTWCFCOUBHS-UHFFFAOYSA-N,[Cl-].CCCCCCCCCCCCCCCCCC[NH+](C)C,-4.678690034,0,1,G1,334.032,2.3964,97.2237,22,0,1,2,17,136,0,0,0,0,4.44,147.5860781,0,182.5460575
A-441,tetrabutylazanium bromide,"InChI=1S/C16H36N.BrH/c1-5-9-13-17(14-10-6-2,15-11-7-3)16-12-8-4;/h5-16H2,1-4H3;1H/q+1;/p-1",JRMUNVKIHCOMHV-UHFFFAOYSA-M,[Br-].CCCC[N+](CCCC)(CCCC)CCCC,1.332024844,0,1,G1,322.375,2.0076,79.3604,18,0,0,2,12,112,0,0,0,0,0,126.69589,0,121.6661751
A-444,cadmium dihydroxide,InChI=1S/Cd.2H2O/h;2*1H2/q+2;;/p-2,PLLZRTNVEXYBNA-UHFFFAOYSA-L,[OH-].[OH-].[Cd++],-3.323633394,0,1,G1,146.426,-0.3561,3.8716,3,2,0,3,0,16,0,0,0,0,60,38.61253619,0,2.754887502
A-445,"(2R)-6-fluoro-2-[(2R)-oxiran-2-yl]-3,4-dihydro-2H-1-benzopyran; (2R)-6-fluoro-2-[(2S)-oxiran-2-yl]-3,4-dihydro-2H-1-benzopyran; (2S)-6-fluoro-2-[(2R)-oxiran-2-yl]-3,4-dihydro-2H-1-benzopyran; (2S)-6-fluoro-2-[(2S)-oxiran-2-yl]-3,4-dihydro-2H-1-benzopyran","InChI=1S/4C11H11FO2/c4*12-8-2-4-9-7(5-8)1-3-10(14-9)11-6-13-11/h4*2,4-5,10-11H,1,3,6H2/t2*10-,11+;2*10-,11-/m1010/s1",KCFGCDSNSLCBLY-IOLMCIFPSA-N,Fc1ccc2O[C@@H](CCc2c1)[C@@H]3CO3.Fc4ccc5O[C@@H](CCc5c4)[C@H]6CO6.Fc7ccc8O[C@H](CCc8c7)[C@@H]9CO9.Fc%10ccc%11O[C@H](CCc%11c%10)[C@H]%12CO%12,-3.052101177,0,1,G1,776.82,7.6724,195.508,56,8,0,12,4,296,4,4,8,12,87.04,322.4428757,9.75E-08,1727.220824
A-447,"(2E)-3,7-dimethylocta-2,6-dien-1-ol","InChI=1S/C10H18O/c1-9(2)5-4-6-10(3)7-8-11/h5,7,11H,4,6,8H2,1-3H3/b10-7+",GLZPCOQZEFWAFX-JXMROGBWSA-N,CC(C)=CCC\C(C)=C\CO,-2.351909504,0.418162058,2,G3,154.253,2.6714,49.5078,11,1,1,1,4,64,0,0,0,0,20.23,69.43875775,3.544387431,150.2557124
A-451,"1,2-dimethoxybenzene","InChI=1S/C8H10O2/c1-9-7-5-3-4-6-8(7)10-2/h3-6H,1-2H3",ABDKAPXRBAPSQN-UHFFFAOYSA-N,COc1ccccc1OC,-1.314975067,0,1,G1,138.166,1.7038,39.546,10,2,0,2,2,54,1,0,0,1,18.46,60.38837781,2.964000094,185.1674942
A-452,"2-(4,5-diamino-1H-pyrazol-1-yl)ethan-1-ol; sulfuric acid","InChI=1S/C5H10N4O.H2O4S/c6-4-3-8-9(1-2-10)5(4)7;1-5(2,3)4/h3,10H,1-2,6-7H2;(H2,1,2,3,4)",IBCDZZHMNXXYAP-UHFFFAOYSA-N,Nc1cnn(CCO)c1N.O[S](O)(=O)=O,0.444259344,0,1,G1,240.241,-1.613,52.315,15,7,5,10,2,88,1,0,0,1,164.69,85.88024074,3.36E-07,391.5549293
A-453,"disodium benzene-1,3-disulfonate","InChI=1S/C6H6O6S2.2Na/c7-13(8,9)5-2-1-3-6(4-5)14(10,11)12;;/h1-4H,(H,7,8,9)(H,10,11,12);;/q;2*+1/p-2",XWPWZOJBTOJEGW-UHFFFAOYSA-L,[Na+].[Na+].[O-][S](=O)(=O)c1cccc(c1)[S]([O-])(=O)=O,0.370947285,0,1,G1,282.206,-6.4972,42.3684,16,6,0,10,2,78,1,0,0,1,114.4,137.5154744,0,502.8864219
A-454,tris(2-butoxyethyl) phosphate,"InChI=1S/C18H39O7P/c1-4-7-10-20-13-16-23-26(19,24-17-14-21-11-8-5-2)25-18-15-22-12-9-6-3/h4-18H2,1-3H3",WTLBZVNBAKMVDP-UHFFFAOYSA-N,CCCCOCCO[P](=O)(OCCOCCCC)OCCOCCCC,-2.778562332,0.109781166,2,G3,398.477,4.5944,102.6435,26,7,0,8,21,158,0,0,0,0,72.45,159.174149,4.044873529,281.1125944
A-457,1-methoxyhexane,"InChI=1S/C7H16O/c1-3-4-5-6-7-8-2/h3-7H2,1-2H3",ICBJCVRQDSQPGI-UHFFFAOYSA-N,CCCCCCOC,-2.245085326,0,1,G1,116.204,2.2131,36.018,8,1,0,1,5,50,0,0,0,0,9.23,52.04244894,2.530060457,29.36806555
A-458,1-chloro-2-nitro-4-(trifluoromethyl)benzene,"InChI=1S/C7H3ClF3NO2/c8-5-2-1-4(7(9,10)11)3-6(5)12(13)14/h1-3H",TZGFQIXRVUHDLE-UHFFFAOYSA-N,[O-][N+](=O)c1cc(ccc1Cl)C(F)(F)F,-2.533704672,0,1,G1,225.553,3.267,43.1084,14,2,0,7,1,76,1,0,0,1,43.14,81.24919339,3.267886415,377.6879236
A-461,Betamethasone,"InChI=1S/C22H29FO5/c1-12-8-16-15-5-4-13-9-14(25)6-7-19(13,2)21(15,23)17(26)10-20(16,3)22(12,28)18(27)11-24/h6-7,9,12,15-17,24,26,28H,4-5,8,10-11H2,1-3H3/t12-,15-,16-,17-,19-,20-,21-,22-/m0/s1",UREBDLICKHMUKA-DVTGEIKXSA-N,C[C@H]1C[C@H]2[C@@H]3CCC4=CC(=O)C=C[C@]4(C)[C@@]3(F)[C@@H](O)C[C@]2(C)[C@@]1(O)C(=O)CO,-3.7709815,0,1,G1,392.467,1.8957,99.9444,28,5,3,6,2,154,0,3,4,4,94.83,163.8717856,1.837691879,804.7488255
A-463,3-(4-isopropylphenyl)-2-methylpropanal,"InChI=1S/C13H18O/c1-10(2)12-4-6-13(7-5-12)11(3)8-9-14/h4-7,9-11H,8H2,1-3H3",HQQPOVNESMNPNH-UHFFFAOYSA-N,CC(C)c1ccc(cc1)C(C)CC=O,-3.459862901,0,1,G1,190.286,3.5025,59.627,14,1,0,1,4,76,1,0,0,1,17.07,86.14752002,2.768539052,284.608802
A-465,"(2,4,6-trimethylcyclohex-3-en-1-yl)methanol","InChI=1S/C10H18O/c1-7-4-8(2)10(6-11)9(3)5-7/h4,8-11H,5-6H2,1-3H3",DMXUBGVVJLVCPB-UHFFFAOYSA-N,CC1CC(=CC(C)C1CO)C,-2.371197393,0,1,G1,154.253,2.2171,47.2778,11,1,1,1,1,64,0,0,1,1,20.23,69.12252962,2.686564096,160.2557124
A-466,"3,7-dimethylnona-1,6-dien-3-ol","InChI=1S/C11H20O/c1-5-10(3)8-7-9-11(4,12)6-2/h6,8,12H,2,5,7,9H2,1,3-4H3/b10-8+",KRLBLPBPZSSIGH-CSKARUKUSA-N,CC/C(C)=C/CCC(C)(O)C=C,-2.409128664,0,1,G1,168.28,3.0599,54.1028,12,1,1,1,5,70,0,0,0,0,20.23,75.80369986,3.765107581,165.842926
A-467,"tris(oxiran-2-ylmethyl) benzene-1,2,4-tricarboxylate","InChI=1S/C18H18O9/c19-16(25-7-11-4-22-11)10-1-2-14(17(20)26-8-12-5-23-12)15(3-10)18(21)27-9-13-6-24-13/h1-3,11-13H,4-9H2",YNOWBNNLZSSIHM-UHFFFAOYSA-N,O=C(OCC1CO1)c2ccc(C(=O)OCC3CO3)c(c2)C(=O)OCC4CO4,-2.762296476,0,1,G1,378.333,0.3534,86.5095,27,9,0,9,9,144,1,3,3,4,116.49,153.9590527,1.484111838,747.1992351
A-468,"2,4-dimethyl-4-phenyltetrahydrofuran","InChI=1S/C12H16O/c1-10-8-12(2,9-13-10)11-6-4-3-5-7-11/h3-7,10H,8-9H2,1-2H3",GPMLJOOQCIHFET-UHFFFAOYSA-N,CC1CC(C)(CO1)c2ccccc2,-2.433237945,0,1,G1,176.259,2.7531,53.825,13,1,0,1,1,70,1,1,1,2,9.23,79.72876988,2.257639822,280.4357678
A-469,ethyl 2-ethylhexanoate,"InChI=1S/C10H20O2/c1-4-7-8-9(5-2)10(11)12-6-3/h9H,4-8H2,1-3H3",YXAGIRHBJJLWHW-UHFFFAOYSA-N,CCCCC(CC)C(=O)OCC,-3.423291255,0,1,G1,172.268,2.7659,49.939,12,2,0,2,6,72,0,0,0,0,26.3,75.29879739,3.706707862,121.0069869
A-470,quinolin-8-ol,"InChI=1S/C9H7NO/c11-8-5-1-3-7-4-2-6-10-9(7)8/h1-6,11H",MCJGNVYPOGVAJF-UHFFFAOYSA-N,Oc1cccc2cccnc12,-2.349605255,0.040840161,3,G5,145.161,1.9404,43.4078,11,2,1,2,0,54,2,0,0,2,33.12,64.12694938,2.913161164,378.7244463
A-471,"trisodium (3Z)-7-({4-chloro-6-[ethyl({3-[2-(sulfonatooxy)ethanesulfonyl]phenyl})amino]-1,3,5-triazin-2-yl}amino)-3-[2-(4-methoxy-2-sulfonatophenyl)hydrazin-1-ylidene]-4-oxo-3,4-dihydronaphthalene-2-sulfonate","InChI=1S/C30H28ClN7O14S4.3Na/c1-3-38(19-5-4-6-21(15-19)53(40,41)12-11-52-56(48,49)50)30-34-28(31)33-29(35-30)32-18-7-9-22-17(13-18)14-25(55(45,46)47)26(27(22)39)37-36-23-10-8-20(51-2)16-24(23)54(42,43)44;;;/h4-10,13-16,36H,3,11-12H2,1-2H3,(H,42,43,44)(H,45,46,47)(H,48,49,50)(H,32,33,34,35);;;/q;3*+1/p-3/b37-26-;;;",FTXPZBYCIGOUHZ-WPJWCKLJSA-K,[Na+].[Na+].[Na+].CCN(c1cccc(c1)[S](=O)(=O)CCO[S]([O-])(=O)=O)c2nc(Cl)nc(Nc3ccc4C(=O)C(=N/Nc5ccc(OC)cc5[S]([O-])(=O)=O)\C(=Cc4c3)[S]([O-])(=O)=O)n2,-1.161671108,0.142667504,2,G3,940.256,-6.8477,195.4053,59,21,2,29,15,298,4,0,1,5,319.6,409.228079,4.00E-06,2764.940914
A-472,zinc dihydroxide,InChI=1S/2H2O.Zn/h2*1H2;/q;;+2/p-2,UGZADUVQMDAIAO-UHFFFAOYSA-L,[OH-].[OH-].[Zn++],-2.185828855,0,1,G1,99.404,-0.3561,3.8716,3,2,0,3,0,16,0,0,0,0,60,31.21331266,0,2.754887502
A-475,"1,2-diethoxybenzene","InChI=1S/C10H14O2/c1-3-11-9-7-5-6-8-10(9)12-4-2/h5-8H,3-4H2,1-2H3",QZYDOKBVZJLQCK-UHFFFAOYSA-N,CCOc1ccccc1OCC,-2.41045076,0,1,G1,166.22,2.484,48.78,12,2,0,2,4,66,1,0,0,1,18.46,73.11826204,2.765009424,208.0351181
A-476,(2E)-but-2-ene,"InChI=1S/C4H8/c1-3-4-2/h3-4H,1-2H3/b4-3+",IAQRGUVFOMOMEM-ONEGZZNKSA-N,C\C=C\C,-1.939465074,0.050567463,2,G3,56.108,1.5824,20.488,4,0,0,0,0,24,0,0,0,0,0,27.14447434,2.549193338,15.21928095
A-477,D-erythro-pentitol,"InChI=1S/C5H12O5/c6-1-3(8)5(10)4(9)2-7/h3-10H,1-2H2",HEBKCHPVOIAQTA-UHFFFAOYSA-N,OCC(O)C(O)C(O)CO,0.625274489,0,1,G1,152.146,-2.9463,32.192,10,5,5,5,4,62,0,0,0,0,101.15,58.17018825,3.685406534,76.10749561
A-478,"2-methylbuta-1,3-diene","InChI=1S/C5H8/c1-4-5(2)3/h4H,1-2H2,3H3",RRHGJUQNOFWUDK-UHFFFAOYSA-N,CC(=C)C=C,-2.025733236,0,1,G1,68.119,1.7485,25.011,5,0,0,0,1,28,0,0,0,0,0,32.81981342,3.204805418,51.05865003
A-481,"(Z)-N-(3-aminopropyl)-N'-[3-(9-octadecenylamino)propyl]propane-1,3-diamine","InChI=1S/C27H58N4/c1-2-3-4-5-6-7-8-9-10-11-12-13-14-15-16-17-22-29-24-19-26-31-27-20-25-30-23-18-21-28/h9-10,29-31H,2-8,11-28H2,1H3/b10-9+",XWNMFDCGCAFWHB-MDZDMXLPSA-N,CCCCCCCC/C=C/CCCCCCCCNCCCNCCCNCCCN,-3.836075758,0,1,G1,438.789,5.9217,140.9665,31,4,4,4,27,186,0,0,0,0,62.11,195.5276202,3.038810254,333.1981231
A-482,"3,7-dimethyloctan-1-ol","InChI=1S/C10H22O/c1-9(2)5-4-6-10(3)7-8-11/h9-11H,4-8H2,1-3H3",PRNCMAKCNVRZFX-UHFFFAOYSA-N,CC(C)CCCC(C)CCO,-3.393259787,0,1,G1,158.285,2.8312,49.5558,11,1,1,1,6,68,0,0,0,0,20.23,70.81796381,3.09962083,78.94196247
A-483,"disodium {1-ethyl-5-[(E)-2-(4-{4-[(E)-2-[1-ethyl-2-hydroxy-4-methyl-6-oxo-5-(sulfonatomethyl)-1,6-dihydropyridin-3-yl]diazen-1-yl]benzenesulfonyl}phenyl)diazen-1-yl]-6-hydroxy-4-methyl-2-oxo-1,2-dihydropyridin-3-yl}methanesulfonate","InChI=1S/C30H32N6O12S3.2Na/c1-5-35-27(37)23(15-49(41,42)43)17(3)25(29(35)39)33-31-19-7-11-21(12-8-19)51(47,48)22-13-9-20(10-14-22)32-34-26-18(4)24(16-50(44,45)46)28(38)36(6-2)30(26)40;;/h7-14,39-40H,5-6,15-16H2,1-4H3,(H,41,42,43)(H,44,45,46);;/q;2*+1/p-2",CMXLXDYHEIIMLD-UHFFFAOYSA-L,[Na+].[Na+].CCN1C(=C(N=Nc2ccc(cc2)[S](=O)(=O)c3ccc(cc3)N=NC4=C(O)N(CC)C(=O)C(=C4C)C[S]([O-])(=O)=O)C(=C(C[S]([O-])(=O)=O)C1=O)C)O,-2.10218738,0,1,G1,808.781,-2.16016,179.0458,53,18,2,23,12,272,4,0,0,4,282.44,347.8959986,4.86E-06,2366.921368
A-485,1-phenylethan-1-one,"InChI=1S/C8H8O/c1-7(9)8-5-3-2-4-6-8/h2-6H,1H3",KWOLFJPFCHCOCG-UHFFFAOYSA-N,CC(=O)c1ccccc1,-1.28038684,0.05962319,4,G5,120.151,1.8892,36.4465,9,1,0,1,1,46,1,0,0,1,17.07,54.32280945,2.981454614,201.0674371
A-487,(3E)-4-methyldec-3-en-5-ol,"InChI=1S/C11H22O/c1-4-6-7-9-11(12)10(3)8-5-2/h8,11-12H,4-7,9H2,1-3H3/b10-8+",WSTQLNQRVZNEDV-CSKARUKUSA-N,CCCCCC(O)C(/C)=C/CC,-3.431863898,0,1,G1,170.296,3.2839,54.1968,12,1,1,1,6,72,0,0,0,0,20.23,76.49330289,3.561023722,126.9658022
A-488,butyl butanoate,"InChI=1S/C8H16O2/c1-3-5-7-10-8(9)6-4-2/h3-7H2,1-2H3",XUPYJHCZDLZNFP-UHFFFAOYSA-N,CCCCOC(=O)CCC,-2.361047779,0.04952611,2,G3,144.214,2.1298,40.775,10,2,0,2,5,60,0,0,0,0,26.3,62.56891316,3.052375189,89.25838097
A-491,"benzene-1,2-dicarboxylic acid","InChI=1S/C8H6O4/c9-7(10)5-3-1-2-4-6(5)8(11)12/h1-4H,(H,9,10)(H,11,12)",XNGIFLGASWRNHJ-UHFFFAOYSA-N,OC(=O)c1ccccc1C(O)=O,-1.424573276,0.329864933,8,G5,166.132,1.083,40.3606,12,2,2,4,2,62,1,0,0,1,74.6,68.07279905,3.267076196,296.5846747
A-492,"octahydro-1H-4,7-methanoindene-1-carbaldehyde","InChI=1S/C11H16O/c12-6-9-3-4-10-7-1-2-8(5-7)11(9)10/h6-11H,1-5H2",USPJNXWHVJTDJW-UHFFFAOYSA-N,O=CC1CCC2C3CCC(C3)C12,-2.419967647,0,1,G1,164.248,2.2576,46.599,12,1,0,1,1,66,0,3,3,3,17.07,73.53270081,1.889389092,211.0496522
A-493,"hydrogen peroxide - 1,2-diisopropylbenzene (1:1)","InChI=1S/C12H18.H2O2/c1-9(2)11-7-5-6-8-12(11)10(3)4;1-2/h5-10H,1-4H3;1-2H",SPTHWAJJMLCAQF-UHFFFAOYSA-N,CC(C)c1ccccc1C(C)C.OO,-2.497713585,0,1,G1,196.29,3.9508,59.8776,14,2,2,2,2,80,1,0,0,1,40.46,86.14464978,7.91E-07,227.2535713
A-494,"2,6-dimethylphenol","InChI=1S/C8H10O/c1-6-4-3-5-7(2)8(6)9/h3-5,9H,1-2H3",NXXYKOUNUYWIHA-UHFFFAOYSA-N,Cc1cccc(C)c1O,-1.292396158,0.128070997,6,G5,122.167,2.00904,37.5808,9,1,1,1,0,48,1,0,0,1,20.23,54.9555211,3.247834734,195.5576621
A-495,RHENIUM,InChI=1S/Re,WUAPFZMCVAUBPE-UHFFFAOYSA-N,[Re],-0.475507957,0,1,G1,186.207,-0.0025,0,1,0,0,1,0,7,0,0,0,0,0,21.14774404,0,0
A-496,1-phenylpropan-1-ol,"InChI=1S/C9H12O/c1-2-9(10)8-6-4-3-5-7-8/h3-7,9-10H,2H2,1H3",DYUQAZSOFZSPHD-UHFFFAOYSA-N,CCC(O)c1ccccc1,-2.340367591,0,1,G1,136.194,2.13,41.6928,10,1,1,1,2,54,1,0,0,1,20.23,61.32046321,2.746978189,181.1795714