ID,Name,InChI,InChIKey,SMILES,Solubility,SD,Ocurrences,Group,MolWt,MolLogP,MolMR,HeavyAtomCount,NumHAcceptors,NumHDonors,NumHeteroatoms,NumRotatableBonds,NumValenceElectrons,NumAromaticRings,NumSaturatedRings,NumAliphaticRings,RingCount,TPSA,LabuteASA,BalabanJ,BertzCT
A-1859,(2E)-3-phenylprop-2-enenitrile,InChI=1S/C9H7N/c10-8-4-7-9-5-2-1-3-6-9/h1-7H/b7-4+,ZWKNLRXFUTWSOY-QPJJXVBHSA-N,N#C/C=C/c1ccccc1,-2.082970342,0,1,G1,129.162,2.22338,41.089,10,1,0,1,1,48,1,0,0,1,23.79,60.22920611,2.789949982,253.8067972
A-1860,2-[(3-aminophenyl)sulfonyl]ethyl hydrogen sulfate,"InChI=1S/C8H11NO6S2/c9-7-2-1-3-8(6-7)16(10,11)5-4-15-17(12,13)14/h1-3,6H,4-5,9H2,(H,12,13,14)",BCLOBWIFURSERL-UHFFFAOYSA-N,Nc1cccc(c1)[S](=O)(=O)CCO[S](O)(=O)=O,-1.423880849,0,1,G1,281.311,-0.1381,60.4078,17,6,2,9,5,96,1,0,0,1,123.76,99.07776154,2.765085558,592.1963482
A-1861,"(3E)-4-(2,6,6-trimethylcyclohex-2-en-1-yl)but-3-en-2-one","InChI=1S/C13H20O/c1-10-6-5-9-13(3,4)12(10)8-7-11(2)14/h6-8,12H,5,9H2,1-4H3/b8-7+",UZFLPKAIBPNNCA-BQYQJAHWSA-N,CC(=O)/C=C/C1C(=CCCC1(C)C)C,-3.258677936,0.288377063,2,G3,192.302,3.5141,60.083,14,1,0,1,2,78,0,0,1,1,17.07,86.89504128,2.862289603,281.6106883
A-1863,ethyl formate,"InChI=1S/C3H6O2/c1-2-5-3-4/h3H,2H2,1H3",WBJINCZRORDGAQ-UHFFFAOYSA-N,CCOC=O,0.151494188,0.037614298,2,G3,74.079,0.1793,17.69,5,2,0,2,2,30,0,0,0,0,26.3,30.74420259,2.401715223,26.07403392
A-1864,2-amino-4-sulfobenzoic acid,"InChI=1S/C7H7NO5S/c8-6-3-4(14(11,12)13)1-2-5(6)7(9)10/h1-3H,8H2,(H,9,10)(H,11,12,13)",GRGSHONWRKRWGP-UHFFFAOYSA-N,Nc1cc(ccc1C(O)=O)[S](O)(=O)=O,-1.315674521,0,1,G1,217.202,0.2137,47.6283,14,4,3,7,2,76,1,0,0,1,117.69,79.72062779,3.339787386,478.8535635
A-1865,4-(2-aminoethyl)phenol,"InChI=1S/C8H11NO/c9-6-5-7-1-3-8(10)4-2-7/h1-4,10H,5-6,9H2",DZGWFCGJZKJUFP-UHFFFAOYSA-N,NCCc1ccc(O)cc1,-1.116107831,0,1,G1,137.182,0.8934,40.8652,10,2,2,2,2,54,1,0,0,1,46.25,60.2954118,2.693803452,192.9174942
A-1866,sodium 6-amino-5-[[2-[(cyclohexylmethylamino)sulphonyl]phenyl]azo]-4-hydroxynaphthalene-2-sulphonate,"InChI=1S/C23H26N4O6S2.Na/c1-27(16-7-3-2-4-8-16)34(29,30)21-10-6-5-9-19(21)25-26-23-18(24)12-11-15-13-17(35(31,32)33)14-20(28)22(15)23;/h5-6,9-14,16,24-26H,2-4,7-8H2,1H3,(H,31,32,33);/q;+1/p-1",LSBJGNGGNXAKCL-UHFFFAOYSA-M,[Na+].CN(C1CCCCC1)[S](=O)(=O)c2ccccc2NNC3=C4C(=O)C=C(C=C4C=CC3=N)[S]([O-])(=O)=O,-2.711685939,0,1,G1,540.599,-0.65783,129.7851,36,9,3,13,7,186,1,1,3,4,159.56,232.3388922,3.61E-06,1421.805243
A-1867,2-butoxyethyl benzoate,"InChI=1S/C13H18O3/c1-2-3-9-15-10-11-16-13(14)12-7-5-4-6-8-12/h4-8H,2-3,9-11H2,1H3",NMBQBIACXMPEQB-UHFFFAOYSA-N,CCCCOCCOC(=O)c1ccccc1,-3.322422536,0,1,G1,222.284,2.6601,62.4515,16,3,0,3,7,88,1,0,0,1,35.53,96.37461048,2.116728159,295.3058331
A-1868,2-methoxy-4-nitroaniline,"InChI=1S/C7H8N2O3/c1-12-7-4-5(9(10)11)2-3-6(7)8/h2-4H,8H2,1H3",GVBHRNIWBGTNQA-UHFFFAOYSA-N,COc1cc(ccc1N)[N+]([O-])=O,-3.204512738,0,1,G1,168.152,1.1856,44.0608,12,4,1,5,2,64,1,0,0,1,78.39,68.90275688,3.13430025,311.51984
A-1869,zinc(2+) ion sulfanediide,InChI=1S/S.Zn,WGPCGCOKHWGKJJ-UHFFFAOYSA-N,S=[Zn],-2.967623739,1.978948405,3,G4,97.457,0.6457,7.591,2,1,0,2,0,8,0,0,0,0,0,27.1414379,2,2
A-1870,2-({3-[bis(carboxymethyl)amino]propyl}(carboxymethyl)amino)acetic acid,"InChI=1S/C11H18N2O8/c14-8(15)4-12(5-9(16)17)2-1-3-13(6-10(18)19)7-11(20)21/h1-7H2,(H,14,15)(H,16,17)(H,18,19)(H,20,21)",DMQQXDPCRUGSQB-UHFFFAOYSA-N,OC(=O)CN(CCCN(CC(O)=O)CC(O)=O)CC(O)=O,-1.469072537,0,1,G1,306.271,-1.6811,68.0402,21,6,4,10,12,120,0,0,0,0,155.68,119.7313629,4.336673147,329.6844671
A-1871,"3,4,5-trifluorophenol","InChI=1S/C6H3F3O/c7-4-1-3(10)2-5(8)6(4)9/h1-2,10H",ZRTWIJKGTUGZJY-UHFFFAOYSA-N,Oc1cc(F)c(F)c(F)c1,-0.153609692,0,1,G1,148.083,1.8095,27.9808,10,1,1,4,0,54,1,0,0,1,20.23,54.72224308,3.310532875,236.1649959
A-1872,hexanoic acid,"InChI=1S/C6H12O2/c1-2-3-4-5-6(7)8/h2-5H2,1H3,(H,7,8)",FUZZWVXGSFPDMH-UHFFFAOYSA-N,CCCCCC(O)=O,-1.052219379,0,1,G1,116.16,1.6513,31.7778,8,1,1,2,4,48,0,0,0,0,37.3,49.51971745,2.822354554,68.92878689
A-1873,"1,2,3-tributyl 2-hydroxypropane-1,2,3-tricarboxylate","InChI=1S/C18H32O7/c1-4-7-10-23-15(19)13-18(22,17(21)25-12-9-6-3)14-16(20)24-11-8-5-2/h22H,4-14H2,1-3H3",ZFOZVQLOBQUTQQ-UHFFFAOYSA-N,CCCCOC(=O)CC(O)(CC(=O)OCCCC)C(=O)OCCCC,-3.545270972,0,1,G1,360.447,2.5276,91.7848,25,7,1,7,14,146,0,0,0,0,99.13,149.5627027,4.797344722,382.2287613
A-1874,"(2,4-dimethylcyclohex-3-en-1-yl)methyl acetate","InChI=1S/C11H18O2/c1-8-4-5-11(9(2)6-8)7-13-10(3)12/h6,9,11H,4-5,7H2,1-3H3",LICUDMOFXVHDPB-UHFFFAOYSA-N,CC1C=C(C)CCC1COC(C)=O,-3.250398558,0,1,G1,182.263,2.5419,52.278,13,2,0,2,2,74,0,0,1,1,26.3,79.96830532,2.396855637,218.1301686
A-1875,2-ethylhexyl cyanoacetate,"InChI=1S/C11H19NO2/c1-3-5-6-10(4-2)9-14-11(13)7-8-12/h10H,3-7,9H2,1-2H3",ZNYBQVBNSXLZNI-UHFFFAOYSA-N,CCCCC(CC)COC(=O)CC#N,-3.286478485,0,1,G1,197.278,2.65968,54.495,14,3,0,3,7,80,0,0,0,0,50.09,86.05631918,3.614668638,195.9544373
A-1876,tetralead trioxide sulphate,"InChI=1S/H2O4S.3O.4Pb/c1-5(2,3)4;;;;;;;/h(H2,1,2,3,4);;;;;;;/q;;;;;;;+2/p-2",ULGNLQBHIXGZMQ-UHFFFAOYSA-L,[Pb++].[O-][S]([O-])(=O)=O.O=[Pb].O=[Pb].O=[Pb],-3.979450176,0,1,G1,972.86,-3.2176,35.5501,12,7,0,12,0,64,0,0,0,0,131.47,137.6522704,-2.03E-08,126.7304781
A-1877,"6-{[amino(phenyl)acetyl]amino}-3,3-dimethyl-7-oxo-4-thia-1-azabicyclo[3.2.0]heptane-2-carboxylic acid","InChI=1S/C16H19N3O4S/c1-16(2)11(15(22)23)19-13(21)10(14(19)24-16)18-12(20)9(17)8-6-4-3-5-7-8/h3-7,9-11,14H,17H2,1-2H3,(H,18,20)(H,22,23)/t9-,10-,11+,14-/m1/s1",AVKUERGKIZMTKX-NJBDSQKTSA-N,CC1(C)S[C@@H]2[C@H](NC(=O)[C@H](N)c3ccccc3)C(=O)N2[C@H]1C(O)=O,-1.539016442,0,1,G1,349.412,0.3181,89.0289,24,5,3,8,4,128,1,2,2,3,112.73,143.1206586,1.711293316,693.8227554
A-1878,4-[(4-aminophenyl)methyl]aniline,"InChI=1S/C13H14N2/c14-12-5-1-10(2-6-12)9-11-3-7-13(15)8-4-11/h1-8H,9,14-15H2",YBRVSVVVWCFQMG-UHFFFAOYSA-N,Nc1ccc(Cc2ccc(N)cc2)cc1,-2.292933442,0,1,G1,198.269,2.4418,64.5148,15,2,2,2,2,76,2,0,0,2,52.04,89.53322083,2.146711376,385.5980617
A-1879,"6-ethoxy-2,2,4-trimethyl-1,2-dihydroquinoline","InChI=1S/C14H19NO/c1-5-16-11-6-7-13-12(8-11)10(2)9-14(3,4)15-13/h6-9,15H,5H2,1-4H3",DECIPOUIJURFOJ-UHFFFAOYSA-N,CCOc1ccc2NC(C)(C)C=C(C)c2c1,-3.332762335,0.174138777,4,G5,217.312,3.6927,68.9637,16,2,1,2,2,86,1,0,1,2,21.26,97.31891326,2.415269975,432.3615239
A-1881,nonanal,"InChI=1S/C9H18O/c1-2-3-4-5-6-7-8-9-10/h9H,2-8H2,1H3",GYHFUZHODSMOHU-UHFFFAOYSA-N,CCCCCCCCC=O,-3.148706476,0.016675651,3,G5,142.242,2.9359,44.057,10,1,0,1,7,60,0,0,0,0,17.07,63.82031004,2.703789901,69.12851783
A-1884,1-(2-furyl)methanamine,"InChI=1S/C5H7NO/c6-4-5-2-1-3-7-5/h1-3H,4,6H2",DDRPCXLAQZKBJP-UHFFFAOYSA-N,NCc1occc1,1.012704742,0,1,G1,97.117,0.7383,26.5994,7,2,1,2,1,38,1,0,0,1,39.16,41.93056519,2.762608341,122.6360944
A-1885,"2,2,2-trifluoroethan-1-ol","InChI=1S/C2H3F3O/c3-2(4,5)1-6/h6H,1H2",RHQDFWAXVIIEBN-UHFFFAOYSA-N,OCC(F)(F)F,0.999830658,0,1,G1,100.039,0.541,13.1408,6,1,1,4,0,38,0,0,0,0,20.23,32.3950331,3.168489873,38.54808141
A-1886,"2,4,6,8,10-pentamethyl-1,3,5,7,9,2,4,6,8,10-pentaoxapentasilecane",InChI=1S/C5H15O5Si5/c1-11-6-12(2)8-14(4)10-15(5)9-13(3)7-11/h1-5H3,PUNGSQUVTIDKNU-UHFFFAOYSA-N,C[Si]1O[Si](C)O[Si](C)O[Si](C)O[Si](C)O1,0.52929557,0,1,G1,295.6,0.673,63.515,15,5,0,10,0,85,0,1,1,1,46.15,99.88250909,2.54506275,140.2129994
A-1887,2-(2-ethoxyethoxy)ethyl acetate,"InChI=1S/C8H16O4/c1-3-10-4-5-11-6-7-12-8(2)9/h3-7H2,1-2H3",FPZWZCWUIYYYBU-UHFFFAOYSA-N,CCOCCOCCOC(C)=O,0.75396452,0,1,G1,176.212,0.6026,43.945,12,4,0,4,7,72,0,0,0,0,44.76,72.79600362,2.861387339,113.6254878
A-1890,[tris(isopropenyloxy)vinyl]silane,"InChI=1S/C11H18O3Si/c1-8-15(12-9(2)3,13-10(4)5)14-11(6)7/h8H,1-2,4,6H2,3,5,7H3",GBFVZTUQONJGSL-UHFFFAOYSA-N,CC(=C)O[Si](OC(C)=C)(OC(C)=C)C=C,0.645223339,0,1,G1,226.348,3.3011,63.648,15,3,0,4,7,84,0,0,0,0,27.69,92.72186856,4.897563151,253.4141718
A-1892,"butane-1,4-diol","InChI=1S/C4H10O2/c5-3-1-2-4-6/h5-6H,1-4H2",WERYXYBDKMZEQL-UHFFFAOYSA-N,OCCCCO,1.045169179,0.5,2,G3,90.122,-0.2488,23.4056,6,2,2,2,3,38,0,0,0,0,40.46,37.42254488,2.339092315,17.509775
A-1893,"hexamethyl-1,3,5,2,4,6-trioxatrisilinane","InChI=1S/C6H18O3Si3/c1-10(2)7-11(3,4)9-12(5,6)8-10/h1-6H3",HTDJPCNNEPUOOQ-UHFFFAOYSA-N,C[Si]1(C)O[Si](C)(C)O[Si](C)(C)O1,0.652738306,2.897940009,2,G2,222.465,2.1552,55.701,12,3,0,6,0,72,0,1,1,1,27.69,77.78169904,2.808020997,145.1931192
A-1896,"propane-1,2,3-triol","InChI=1S/C3H8O3/c4-1-3(6)2-5/h3-6H,1-2H2",PEDCQBHIVMGVHV-UHFFFAOYSA-N,OCC(O)CO,1.035768663,0.146345139,3,G5,92.094,-1.6681,20.1784,6,3,3,3,2,38,0,0,0,0,60.69,35.85183651,2.754184786,25.21928095
A-1898,tetraethylazanium bromide,"InChI=1S/C8H20N.BrH/c1-5-9(6-2,7-3)8-4;/h5-8H2,1-4H3;1H/q+1;/p-1",HWCKGOZZJDHMNC-UHFFFAOYSA-M,[Br-].CC[N+](CC)(CC)CC,0.677452007,0,1,G1,210.159,-1.1132,42.4244,10,0,0,2,4,64,0,0,0,0,0,75.7763531,0,52.14806784
A-1899,tetraethylazanium chloride,"InChI=1S/C8H20N.ClH/c1-5-9(6-2,7-3)8-4;/h5-8H2,1-4H3;1H/q+1;/p-1",YMBCJWGVCUEGHA-UHFFFAOYSA-M,[Cl-].CC[N+](CC)(CC)CC,0.780656524,0,1,G1,165.708,-1.1132,42.4244,10,0,0,2,4,64,0,0,0,0,0,71.41674424,0,52.14806784
A-1900,tripotassium methylsilanetris(olate),"InChI=1S/CH5O3Si.K/c1-5(2,3)4;/h2-3H,1H3;/q-1;+1",MQGFFOISLVUDQU-UHFFFAOYSA-N,[K+].C[Si](O)(O)[O-],0.878663433,0,1,G1,132.232,-5.096,16.0556,6,3,2,5,0,32,0,0,0,0,63.52,79.79548981,0,26.26466251
A-1901,"butan-2-one O,O',O''-(methylsilylidyne)trioxime","InChI=1S/C13H27N3O3Si/c1-8-11(4)14-17-20(7,18-15-12(5)9-2)19-16-13(6)10-3/h8-10H2,1-7H3/b14-11+,15-12+,16-13+",OGZPYBBKQGPQNU-DABLZPOSSA-N,CC/C(C)=N/O[Si@](C)(O\N=C(C)\CC)O\N=C(C)\CC,-0.479234017,0,1,G1,301.463,3.9626,85.073,20,6,0,7,9,116,0,0,0,0,64.77,122.7582479,4.919056399,325.9990206
A-1902,peroxol,InChI=1S/H2O2/c1-2/h1-2H,MHAJPDPJQMAIIY-UHFFFAOYSA-N,OO,0.468342293,0,1,G1,34.014,0.0174,5.2576,2,2,2,2,0,14,0,0,0,0,40.46,11.89207173,1,0
A-1903,"2-amino-5-[(4-amino-3-sulfophenyl)[(1E)-3-sulfocyclohexa-2,5-dien-1-ylidene]methyl]-3-methylbenzene-1-sulfonic acid","InChI=1S/C20H19N3O9S3.2Na/c1-10-6-13(9-18(20(10)23)35(30,31)32)19(11-2-4-14(21)16(7-11)33(24,25)26)12-3-5-15(22)17(8-12)34(27,28)29;;/h2-9,23H,21-22H2,1H3,(H,24,25,26)(H,27,28,29)(H,30,31,32);;/q;2*+1/p-2",WZRZTHMJPHPAMU-UHFFFAOYSA-L,[Na+].[Na+].CC1=CC(/C=C(C1=N)[S]([O-])(=O)=O)=C(/c2ccc(N)c(c2)[S](O)(=O)=O)c3ccc(N)c(c3)[S]([O-])(=O)=O,-1.767563244,0,1,G1,585.549,-4.77953,124.7725,37,11,4,17,5,186,2,0,1,3,244.66,257.4112337,3.42E-06,1628.582608
A-1904,2-hydroxy-4-methylbenzoic acid,"InChI=1S/C8H8O3/c1-5-2-3-6(8(10)11)7(9)4-5/h2-4,9H,1H3,(H,10,11)",NJESAXZANHETJV-UHFFFAOYSA-N,Cc1ccc(C(O)=O)c(O)c1,-1.182269102,0.858865449,2,G2,152.149,1.39882,39.8031,11,2,2,3,1,58,1,0,0,1,57.53,63.91127695,3.196069662,291.3886867
A-1907,2-hydroxy-5-nitrobenzoic acid,"InChI=1S/C7H5NO5/c9-6-2-1-4(8(12)13)3-5(6)7(10)11/h1-3,9H,(H,10,11)",PPDRLQLKHRZIJC-UHFFFAOYSA-N,OC(=O)c1cc(ccc1O)[N+]([O-])=O,-2.262733408,0.107335082,2,G3,183.119,0.9986,41.7205,13,4,2,6,2,68,1,0,0,1,100.67,72.19931056,3.267052212,373.1456931
A-1912,"1,2-dimethyl-4-nitrobenzene","InChI=1S/C8H9NO2/c1-6-3-4-8(9(10)11)5-7(6)2/h3-5H,1-2H3",HFZKOYWDLDYELC-UHFFFAOYSA-N,Cc1ccc(cc1C)[N+]([O-])=O,-3.179451248,0,1,G1,151.165,2.21164,42.5704,11,2,0,3,1,58,1,0,0,1,43.14,64.81426307,3.151549668,294.1435742
A-1913,1-chloro-2-(chloromethyl)benzene,"InChI=1S/C7H6Cl2/c8-5-6-3-1-2-4-7(6)9/h1-4H,5H2",BASMANVIUSSIIM-UHFFFAOYSA-N,ClCc1ccccc1Cl,-3.20690949,0,1,G1,161.031,3.0788,41.009,9,0,0,2,1,48,1,0,0,1,0,64.40287769,3.006524007,195.8625685
A-1914,2-phenylacetonitrile,"InChI=1S/C8H7N/c9-7-6-8-4-2-1-3-5-8/h1-5H,6H2",SUSQOBVLVYHIEX-UHFFFAOYSA-N,N#CCc1ccccc1,-3.068746,0,1,G1,117.151,1.75268,35.759,9,1,0,1,1,44,1,0,0,1,23.79,54.55386703,2.756899621,207.7592865
A-1916,"4,4'-methylenebis(2,6-dimethylphenol)","InChI=1S/C17H20O2/c1-10-5-14(6-11(2)16(10)18)9-15-7-12(3)17(19)13(4)8-15/h5-8,18-19H,9H2,1-4H3",AZZWZMUXHALBCQ-UHFFFAOYSA-N,Cc1cc(Cc2cc(C)c(O)c(C)c2)cc(C)c1O,-3.408824851,0,1,G1,256.345,3.92228,77.9676,19,2,2,2,2,100,2,0,0,2,40.46,113.9016754,2.364128797,525.6445709
A-1921,sodium dodecylbenzenesulfonate,"InChI=1S/C18H30O3S.Na/c1-2-3-4-5-6-7-8-9-10-14-17-21-22(19,20)18-15-12-11-13-16-18;/h11-13,15-16H,2-10,14,17H2,1H3;",GVGUFUZHNYFZLC-UHFFFAOYSA-N,[Na].CCCCCCCCCCCCO[S](=O)(=O)c1ccccc1,-3.543437239,0.451544994,2,G3,349.492,4.932,97.1778,23,3,0,5,13,127,1,0,0,1,43.37,164.1720556,4.84E-06,474.299882
A-1922,tridecan-1-ol,"InChI=1S/C13H28O/c1-2-3-4-5-6-7-8-9-10-11-12-13-14/h14H,2-13H2,1H3",XFRVVPUIAFSTFO-UHFFFAOYSA-N,CCCCCCCCCCCCCO,-3.301824028,0,1,G1,200.366,4.2897,63.5468,14,1,1,1,11,86,0,0,0,0,20.23,89.91279015,2.784765531,79.23635259
A-1923,bismuth(3+) citrate,"InChI=1S/C6H8O7.Bi/c7-3(8)1-6(13,5(11)12)2-4(9)10;/h13H,1-2H2,(H,7,8)(H,9,10)(H,11,12);/q;+3/p-3",ANERHPOLUMFRDC-UHFFFAOYSA-K,[Bi+3].OC(CC([O-])=O)(CC([O-])=O)C([O-])=O,-4.55976264,0,1,G1,398.079,-5.6334,34.9588,14,7,1,8,5,76,0,0,0,0,140.62,97.4737205,0,232.5645748
A-1925,2-tert-butylcyclohexyl ethyl carbonate,"InChI=1S/C13H24O3/c1-5-15-12(14)16-11-9-7-6-8-10(11)13(2,3)4/h10-11H,5-9H2,1-4H3",ZHWLEUGSDGROJS-UHFFFAOYSA-N,CCOC(=O)OC1CCCCC1C(C)(C)C,-4.321140283,0,1,G1,228.332,3.7644,63.308,16,3,0,3,2,94,0,1,1,1,35.53,98.50133781,2.569183231,229.8224306
A-1926,"4-[4-(4-chlorophenyl)-4-hydroxypiperidin-1-yl]-N,N-dimethyl-2,2-diphenylbutanamide","InChI=1S/C29H33ClN2O2.ClH/c1-31(2)27(33)29(24-9-5-3-6-10-24,25-11-7-4-8-12-25)19-22-32-20-17-28(34,18-21-32)23-13-15-26(30)16-14-23;/h3-16,34H,17-22H2,1-2H3;1H",PGYPOBZJRVSMDS-UHFFFAOYSA-N,[H+].[Cl-].CN(C)C(=O)C(CCN1CCC(O)(CC1)c2ccc(Cl)cc2)(c3ccccc3)c4ccccc4,-4.673121562,0,1,G1,513.509,2.2045,139.1098,35,3,1,6,7,186,3,1,1,4,43.78,220.9707047,2.28E-06,1047.776619
A-1927,hexanoyl hexanoate,"InChI=1S/C12H22O3/c1-3-5-7-9-11(13)15-12(14)10-8-6-4-2/h3-10H2,1-2H3",PKHMTIRCAFTBDS-UHFFFAOYSA-N,CCCCCC(=O)OC(=O)CCCCC,-4.296805043,0,1,G1,214.305,3.2168,59.383,15,3,0,3,8,88,0,0,0,0,43.37,92.19020372,3.446938378,167.3062532
A-1930,undecan-2-one,"InChI=1S/C11H22O/c1-3-4-5-6-7-8-9-10-11(2)12/h3-10H2,1-2H3",KYWIYKKSMDLRDC-UHFFFAOYSA-N,CCCCCCCCCC(C)=O,-4.20182067,0,1,G1,170.296,3.7161,53.291,12,1,0,1,8,72,0,0,0,0,17.07,76.55019427,2.861387339,107.57174
A-1931,[2-(tert-butylperoxy)propan-2-yl]benzene,"InChI=1S/C13H20O2/c1-12(2,3)14-15-13(4,5)11-9-7-6-8-10-11/h6-10H,1-5H3",BIISIZOQPWZPPS-UHFFFAOYSA-N,CC(C)(C)OOC(C)(C)c1ccccc1,-4.29093415,0,1,G1,208.301,3.6684,61.391,15,2,0,2,3,84,1,0,0,1,18.46,92.1423837,2.678833968,296.0620335
A-1933,2-methylheptyl 2-sulfanylacetate,"InChI=1S/C10H20O2S/c1-9(2)6-4-3-5-7-12-10(11)8-13/h9,13H,3-8H2,1-2H3",RZBBHEJLECUBJT-UHFFFAOYSA-N,CC(C)CCCCCOC(=O)CS,-4.285036897,0,1,G1,204.335,2.6758,58.118,13,3,1,3,7,78,0,0,0,0,26.3,86.45386405,3.038009945,134.8864354
A-1934,"octa-1,7-diene","InChI=1S/C8H14/c1-3-5-7-8-6-4-2/h3-4H,1-2,5-8H2",XWJBRBSPAODJER-UHFFFAOYSA-N,C=CCCCCC=C,-4.02327315,0,1,G1,110.2,2.9188,38.862,8,0,0,0,5,46,0,0,0,0,0,51.91463976,2.707948812,52.4385619
A-1939,2-tert-butylcyclohexyl acetate,"InChI=1S/C12H22O2/c1-9(13)14-11-8-6-5-7-10(11)12(2,3)4/h10-11H,5-8H2,1-4H3/t10-,11+/m0/s1",FINOAUDUYKVGDS-WDEREUQCSA-N,CC(=O)O[C@@H]1CCCC[C@@H]1C(C)(C)C,-4.297335855,0,1,G1,198.306,3.1544,56.967,14,2,0,2,1,82,0,1,1,1,26.3,87.02285046,2.63757859,202.8574939
A-1940,"5-chloro-2-(2,4-dichlorophenoxy)phenol","InChI=1S/C12H7Cl3O2/c13-7-1-3-11(9(15)5-7)17-12-4-2-8(14)6-10(12)16/h1-6,16H",XEFQLINVKFYRCS-UHFFFAOYSA-N,Oc1cc(Cl)ccc1Oc2ccc(Cl)cc2Cl,-4.46171607,0.101243951,4,G5,289.545,5.1447,69.6528,17,2,1,5,2,88,2,0,0,2,29.46,113.306075,2.312237835,505.9421592
A-1942,N-[3-(dimethylamino)propyl]octadecanamide,"InChI=1S/C23H48N2O/c1-4-5-6-7-8-9-10-11-12-13-14-15-16-17-18-20-23(26)24-21-19-22-25(2)3/h4-22H2,1-3H3,(H,24,26)",WWVIUVHFPSALDO-UHFFFAOYSA-N,CCCCCCCCCCCCCCCCCC(=O)NCCCN(C)C,-4.566614238,0.67121134,2,G2,368.65,6.3158,115.7267,26,2,1,3,20,156,0,0,0,0,32.34,164.2391955,3.113214118,291.9324054
A-1944,sodium 4-(4-(2-hydroxynaphthalenylazo)phenylazo)benzenesulphonate,"InChI=1S/C22H16N4O4S.Na/c27-21-14-5-15-3-1-2-4-20(15)22(21)26-25-17-8-6-16(7-9-17)23-24-18-10-12-19(13-11-18)31(28,29)30;/h1-14,25H,(H,28,29,30);/q;+1/b24-23?,26-22-;",AXECONFFMZNCKN-SRZPWQCFSA-N,[Na+].O[S](=O)(=O)c1ccc(cc1)N=Nc2ccc(N\N=C3/C(=O)C=Cc4ccccc34)cc2,-4.65844166,0,1,G1,455.451,1.7648,117.5173,32,7,2,10,5,154,3,0,1,4,120.55,206.3755821,2.89E-06,1333.103607
A-1946,magnesium(2+) ion dihydroxide,InChI=1S/Mg.2H2O/h;2*1H2/q+2;;/p-2,VTHJTEIRLNZDEV-UHFFFAOYSA-L,[OH-].[OH-].[Mg++],-4.469144878,0.30175361,4,G5,58.319,-0.7344,9.6256,3,2,0,3,0,16,0,0,0,0,60,34.59988042,0,2.754887502
A-1949,"1,3,3-trimethyl-2-oxabicyclo[2.2.2]octane; 1-methyl-4-(prop-1-en-2-yl)cyclohex-1-ene; 2,6,6-trimethylbicyclo[3.1.1]hept-2-ene","InChI=1S/C10H18O.2C10H16/c1-9(2)8-4-6-10(3,11-9)7-5-8;1-7-4-5-8-6-9(7)10(8,2)3;1-8(2)10-6-4-9(3)5-7-10/h8H,4-7H2,1-3H3;4,8-9H,5-6H2,1-3H3;4,10H,1,5-7H2,2-3H3",YZYRWEREXOLDRZ-UHFFFAOYSA-N,CC(=C)C1CCC(=CC1)C.CC2=CCC3CC2C3(C)C.CC45CCC(CC4)C(C)(C)O5,-5.335685932,1.624800909,2,G2,426.729,9.0517,135.191,31,1,0,1,1,176,0,4,6,6,9.23,193.349815,1.32E-07,707.9388227
A-1953,dodecan-1-ol,"InChI=1S/C12H26O/c1-2-3-4-5-6-7-8-9-10-11-12-13/h13H,2-12H2,1H3",LQZZUXJYWNFBMV-UHFFFAOYSA-N,CCCCCCCCCCCCO,-4.984746451,0.225952116,4,G5,186.339,3.8996,58.9298,13,1,1,1,10,80,0,0,0,0,20.23,83.54784804,2.758149818,71.19366194
A-1954,copper thiocyanate,InChI=1S/CHNS.Cu/c2-1-3;/h3H;/q;+1/p-1,PDZKZMQQDCHTNF-UHFFFAOYSA-M,[Cu+].[S-]C#N,-4.80401091,0.813608589,4,G4,121.631,0.01188,12.978,4,2,0,3,0,26,0,0,0,0,23.79,40.88251764,0,29.509775
A-1956,"O,O,S-tris(4-aminophenyl) thiophosphate","InChI=1S/C18H18N3O3PS/c19-13-1-7-16(8-2-13)22-25(26,23-17-9-3-14(20)4-10-17)24-18-11-5-15(21)6-12-18/h1-12H,19-21H2",MBUAAMOJATXYKR-UHFFFAOYSA-N,Nc1ccc(O[P](=S)(Oc2ccc(N)cc2)Oc3ccc(N)cc3)cc1,-5.309407137,0,1,G1,387.401,4.1945,108.7322,26,7,3,8,6,134,3,0,0,3,105.75,156.2858274,1.876960613,793.4828196
A-1958,2-[4-[2-[4-[2-(2-methylprop-2-enoyloxy)ethoxy]phenyl]propan-2-yl]phenoxy]ethyl 2-methylprop-2-enoate,"InChI=1S/C27H32O6/c1-19(2)25(28)32-17-15-30-23-11-7-21(8-12-23)27(5,6)22-9-13-24(14-10-22)31-16-18-33-26(29)20(3)4/h7-14H,1,3,15-18H2,2,4-6H3",VIYWVRIBDZTTMH-UHFFFAOYSA-N,CC(=C)C(=O)OCCOc1ccc(cc1)C(C)(C)c2ccc(OCCOC(=O)C(C)=C)cc2,-5.379201886,0,1,G1,452.547,5.0087,127.548,33,6,0,6,12,176,2,0,0,2,71.06,195.3606481,1.876568333,891.1761012
A-1959,"(3aR,5aS,9aS,9bR)-3a,6,6,9a-tetramethyl-dodecahydronaphtho[2,1-b]furan","InChI=1S/C16H28O/c1-14(2)8-5-9-15(3)12(14)6-10-16(4)13(15)7-11-17-16/h12-13H,5-11H2,1-4H3/t12-,13+,15-,16+/m0/s1",YPZUZOLGGMJZJO-LQKXBSAESA-N,CC1(C)CCC[C@@]2(C)[C@H]1CC[C@@]3(C)OCC[C@H]23,-5.099487786,0.25911692,2,G3,236.399,4.408,70.927,17,1,0,1,0,98,0,3,3,3,9.23,106.3094345,1.977344799,317.4868683
A-1960,"3a,6,6,9a-tetramethyl-dodecahydronaphtho[2,1-b]furan","InChI=1S/C16H28O/c1-14(2)8-5-9-15(3)12(14)6-10-16(4)13(15)7-11-17-16/h12-13H,5-11H2,1-4H3",YPZUZOLGGMJZJO-UHFFFAOYSA-N,CC1(C)CCCC2(C)C1CCC3(C)OCCC23,-5.099487786,0,1,G1,236.399,4.408,70.927,17,1,0,1,0,98,0,3,3,3,9.23,106.3094345,1.977344799,317.4868683
A-1961,[(1E)-2-(diethoxymethyl)hept-1-en-1-yl]benzene,"InChI=1S/C18H28O2/c1-4-7-9-14-17(18(19-5-2)20-6-3)15-16-12-10-8-11-13-16/h8,10-13,15,18H,4-7,9,14H2,1-3H3/b17-15+",MPKOLWUWOADQCX-BMRADRMJSA-N,CCCCC\C(=C/c1ccccc1)C(OCC)OCC,-5.172056518,0,1,G1,276.42,5.0494,85.601,20,2,0,2,10,112,1,0,0,1,18.46,123.3481959,2.83771255,364.264429
A-1963,dilanthanum(3+) ion tricarbonate,"InChI=1S/3CH2O3.2La/c3*2-1(3)4;;/h3*(H2,2,3,4);;/q;;;2*+3/p-6",NZPIUJUFIFZSPW-UHFFFAOYSA-H,[La+3].[La+3].[O-]C([O-])=O.[O-]C([O-])=O.[O-]C([O-])=O,-5.395892116,0.082223639,2,G3,457.836,-7.341,16.188,14,9,0,11,0,72,0,0,0,0,189.57,132.9381735,-2.70E-08,115.6067314
A-1967,"N,N'-(3,3'-dimethylbiphenyl-4,4'-diyl)bis(3-oxobutanamide)","InChI=1S/C22H24N2O4/c1-13-9-17(5-7-19(13)23-21(27)11-15(3)25)18-6-8-20(14(2)10-18)24-22(28)12-16(4)26/h5-10H,11-12H2,1-4H3,(H,23,27)(H,24,28)",CRRLDLPBQWRVGN-UHFFFAOYSA-N,CC(=O)CC(=O)Nc1ccc(cc1C)c2ccc(NC(=O)CC(C)=O)c(C)c2,-5.325018234,0,1,G1,380.444,3.80564,109.2074,28,4,2,6,7,146,2,0,0,2,92.34,163.8837312,2.167824804,870.0480937