ID,Name,InChI,InChIKey,SMILES,Solubility,SD,Ocurrences,Group,MolWt,MolLogP,MolMR,HeavyAtomCount,NumHAcceptors,NumHDonors,NumHeteroatoms,NumRotatableBonds,NumValenceElectrons,NumAromaticRings,NumSaturatedRings,NumAliphaticRings,RingCount,TPSA,LabuteASA,BalabanJ,BertzCT
A-742,8-aminonaphthalene-2-sulfonic acid,"InChI=1S/C10H9NO3S/c11-10-3-1-2-7-4-5-8(6-9(7)10)15(12,13)14/h1-6H,11H2,(H,12,13,14)",QEZZCWMQXHXAFG-UHFFFAOYSA-N,Nc1cccc2ccc(cc12)[S](O)(=O)=O,-1.682279323,0,1,G1,223.253,1.6687,58.175,15,3,2,5,1,78,2,0,0,2,80.39,87.08159436,2.814655009,619.6001476
A-743,"1,1,1,2,2-pentafluoroethane","InChI=1S/C2HF5/c3-1(4)2(5,6)7/h1H",GTLACDSXYULKMZ-UHFFFAOYSA-N,FC(F)C(F)(F)F,-1.416495791,0.036404115,2,G3,120.02,1.8138,12.059,7,0,0,5,0,44,0,0,0,0,0,35.93187016,3.541196965,51.590719
A-744,"2,3-dimethylphenol","InChI=1S/C8H10O/c1-6-4-3-5-8(9)7(6)2/h3-5,9H,1-2H3",QWBBPBRQALCEIZ-UHFFFAOYSA-N,Cc1cccc(O)c1C,-1.424196078,0.034182641,2,G3,122.167,2.00904,37.5808,9,1,1,1,0,48,1,0,0,1,20.23,54.9555211,3.247834734,195.5576621
A-746,5-chloro-7-iodoquinolin-8-ol,"InChI=1S/C9H5ClINO/c10-6-4-7(11)9(13)8-5(6)2-1-3-12-8/h1-4,13H",QCDFBFJGMNKBDO-UHFFFAOYSA-N,Oc1c(I)cc(Cl)c2cccnc12,-1.822256226,0,1,G1,305.502,3.1984,61.1348,13,2,1,4,0,66,2,0,0,2,33.12,93.69205373,2.966872934,472.3665095
A-749,tert-butyl 2-ethylhexaneperoxoate,"InChI=1S/C12H24O3/c1-6-8-9-10(7-2)11(13)14-15-12(3,4)5/h10H,6-9H2,1-5H3",WYKYCHHWIJXDAO-UHFFFAOYSA-N,CCCCC(CC)C(=O)OOC(C)(C)C,-3.669517691,0,1,G1,216.321,3.4761,60.236,15,3,0,3,6,90,0,0,0,0,35.53,93.07152216,3.935059942,181.7964782
A-750,"2,6,6-trimethylbicyclo[3.1.1]heptane-3-carbaldehyde","InChI=1S/C11H18O/c1-7-8(6-12)4-9-5-10(7)11(9,2)3/h6-10H,4-5H2,1-3H3",VUNCLQCPKWLBRY-UHFFFAOYSA-N,CC1C(CC2CC1C2(C)C)C=O,-3.558040393,0,1,G1,166.264,2.5036,48.713,12,1,0,1,1,68,0,3,3,3,17.07,74.53853196,2.163484668,207.0496522
A-752,2-methyl-4-phenylbutan-2-ol,"InChI=1S/C11H16O/c1-11(2,12)9-8-10-6-4-3-5-7-10/h3-7,12H,8-9H2,1-2H3",YXVSKJDFNJFXAJ-UHFFFAOYSA-N,CC(C)(O)CCc1ccccc1,-1.555639677,0,1,G1,164.248,2.3901,51.0608,12,1,1,1,3,66,1,0,0,1,20.23,74.05034744,2.441997239,220.5094703
A-756,4-nitrophenyl acetate,"InChI=1S/C8H7NO4/c1-6(10)13-8-4-2-7(3-5-8)9(11)12/h2-5H,1H3",QAUUDNIGJSLPSX-UHFFFAOYSA-N,CC(=O)Oc1ccc(cc1)[N+]([O-])=O,-2.599256825,0.029628413,2,G3,181.147,1.5201,44.4054,13,4,0,5,2,68,1,0,0,1,69.44,74.0893304,2.809454194,330.5021927
A-758,1-(1-benzofuran-2-yl)ethan-1-one,"InChI=1S/C10H8O2/c1-7(11)10-6-8-4-2-3-5-9(8)12-10/h2-6H,1H3",YUTFQTAITWWGFH-UHFFFAOYSA-N,CC(=O)c1oc2ccccc2c1,-2.548488397,0,1,G1,160.172,2.6354,46.2185,12,2,0,2,1,60,2,0,0,2,30.21,69.79880324,2.697254061,393.0861294
A-760,2-amino-6-chloro-4-nitrophenol,"InChI=1S/C6H5ClN2O3.ClH/c7-4-1-3(9(11)12)2-5(8)6(4)10;/h1-2,10H,8H2;1H",HXKQPFKBBNRPEK-UHFFFAOYSA-N,[Cl-].[NH3+]c1cc(cc(Cl)c1O)[N+]([O-])=O,-2.699029836,0,1,G1,225.031,-2.1688,42.3193,13,3,2,7,1,72,1,0,0,1,91.01,84.67486277,1.44E-06,319.6464035
A-761,1-[(2-tert-butylcyclohexyl)oxy]butan-2-ol,"InChI=1S/C14H28O2/c1-5-11(15)10-16-13-9-7-6-8-12(13)14(2,3)4/h11-13,15H,5-10H2,1-4H3",GQBVHGLNSHPKPG-UHFFFAOYSA-N,CCC(O)COC1CCCCC1C(C)(C)C,-3.698734262,0,1,G1,228.376,3.3788,67.4508,16,2,1,2,4,96,0,1,1,1,29.46,100.3854463,2.474073273,195.4022473
A-770,"menthane, monohydroperoxy derivative","InChI=1S/C10H20O2/c1-7(2)9-5-4-8(3)6-10(9)12-11/h7-11H,4-6H2,1-3H3",OZTWDFWAMMUDHQ-UHFFFAOYSA-N,CC(C)C1CCC(C)CC1OO,-2.588821642,0,1,G1,172.268,2.9368,48.8448,12,2,1,2,2,72,0,1,1,1,29.46,74.8549732,2.501180984,133.8002691
A-772,"2-methylpropyl 3,5-diamino-4-chlorobenzoate","InChI=1S/C11H15ClN2O2/c1-6(2)5-16-11(15)7-3-8(13)10(12)9(14)4-7/h3-4,6H,5,13-14H2,1-2H3",KHUIRIRTZCOEMK-UHFFFAOYSA-N,CC(C)COC(=O)c1cc(N)c(Cl)c(N)c1,-2.738284824,0.005369099,2,G3,242.706,2.3172,65.3973,16,4,2,5,3,88,1,0,0,1,78.34,99.51422864,2.843280332,381.9661904
A-773,1-benzoylcyclohexan-1-ol,"InChI=1S/C13H16O2/c14-12(11-7-3-1-4-8-11)13(15)9-5-2-6-10-13/h1,3-4,7-8,15H,2,5-6,9-10H2",QNODIIQQMGDSEF-UHFFFAOYSA-N,OC1(CCCCC1)C(=O)c2ccccc2,-2.664780194,0,1,G1,204.269,2.5645,58.8073,15,2,1,2,2,80,1,1,1,2,37.3,89.93592262,2.197389224,336.8134025
A-775,benzylhydrazine dihydrochloride,"InChI=1S/C7H10N2.2ClH/c8-9-6-7-4-2-1-3-5-7;;/h1-5,9H,6,8H2;2*1H",MSJHOJKVMMEMNX-UHFFFAOYSA-N,[H+].[H+].[Cl-].[Cl-].NNCc1ccccc1,-1.646789011,0,1,G1,195.093,-5.1171,39.6931,11,2,2,4,2,64,1,0,0,1,38.05,81.93201738,-1.01E-07,175.4033276
A-777,2-ethoxy-3-[[4-[2-(2H-tetrazol-5-yl)phenyl]phenyl]methyl]benzimidazole-4-carboxylic acid,"InChI=1S/C24H20N6O3/c1-2-33-24-25-20-9-5-8-19(23(31)32)21(20)30(24)14-15-10-12-16(13-11-15)17-6-3-4-7-18(17)22-26-28-29-27-22/h3-13H,2,14H2,1H3,(H,31,32)(H,26,27,28,29)",HTQMVQVXFRQIKW-UHFFFAOYSA-N,CCOc1nc2cccc(C(O)=O)c2n1Cc3ccc(cc3)c4ccccc4c5n[nH]nn5,-6.497781397,0,1,G1,440.463,4.0286,122.013,33,7,2,9,7,164,5,0,0,5,118.81,188.2256648,1.525137781,1424.913779
A-779,"2,4,6-trichloro-1,3,5-triazine",InChI=1S/C3Cl3N3/c4-1-7-2(5)9-3(6)8-1,MGNCLNQXLYJVJD-UHFFFAOYSA-N,Clc1nc(Cl)nc(Cl)n1,-2.622338856,0.057267988,2,G3,184.413,1.8318,34.857,9,3,0,6,0,48,1,0,0,1,38.67,66.00014574,3.16567031,175.0651777
A-780,2-tert-butyl-6-(3-tert-butyl-2-hydroxy-5-methoxyphenyl)-4-methoxyphenol,"InChI=1S/C22H30O4/c1-21(2,3)17-11-13(25-7)9-15(19(17)23)16-10-14(26-8)12-18(20(16)24)22(4,5)6/h9-12,23-24H,1-8H3",CBYWHFTZNVZQHV-UHFFFAOYSA-N,COc1cc(c(O)c(c1)C(C)(C)C)c2cc(OC)cc(c2O)C(C)(C)C,-6.776311258,0,1,G1,358.478,5.377,105.7116,26,4,2,4,3,142,2,0,0,2,58.92,155.9534764,2.877180826,738.8577899
A-781,Tazobactam,"InChI=1S/C10H12N4O5S/c1-10(5-13-3-2-11-12-13)8(9(16)17)14-6(15)4-7(14)20(10,18)19/h2-3,7-8H,4-5H2,1H3,(H,16,17)/t7-,8+,10+/m1/s1",LPQZKKCYTLCDGQ-WEDXCCLWSA-N,C[C@]1(Cn2ccnn2)[C@@H](N3[C@@H](CC3=O)[S]1(=O)=O)C(O)=O,-1.838461676,0,1,G1,300.296,-1.5232,64.0216,20,7,1,10,3,108,1,2,2,3,122.46,113.6371227,2.097498684,684.5109353
A-784,N-methyl-N-phenylformamide,"InChI=1S/C8H9NO/c1-9(7-10)8-5-3-2-4-6-8/h2-7H,1H3",JIKUXBYRTXDNIY-UHFFFAOYSA-N,CN(C=O)c1ccccc1,-1.494780947,0,1,G1,135.166,1.2792,40.909,10,1,0,2,2,52,1,0,0,1,20.31,60.08264312,2.842015016,207.757393
A-787,"4-aminobenzene-1,3-disulfonic acid","InChI=1S/C6H7NO6S2/c7-5-2-1-4(14(8,9)10)3-6(5)15(11,12)13/h1-3H,7H2,(H,8,9,10)(H,11,12,13)",IMUUNYPYNWXUBO-UHFFFAOYSA-N,Nc1ccc(cc1[S](O)(=O)=O)[S](O)(=O)=O,-1.770093003,0,1,G1,253.257,-0.2378,50.4836,15,5,3,9,2,84,1,0,0,1,134.76,86.02856584,3.573656095,588.0481763
A-789,2-isopropyl-5-methylcyclohexanol,"InChI=1S/C10H20O/c1-7(2)9-5-4-8(3)6-10(9)11/h7-11H,4-6H2,1-3H3/t8-,9+,10+/m1/s1",NOOLISFMXDJSKH-UTLUCORTSA-N,CC(C)[C@@H]1CC[C@@H](C)C[C@@H]1O,-2.560404377,0,1,G1,156.269,2.4395,47.3498,11,1,1,1,1,66,0,1,1,1,20.23,69.81213266,2.43715926,120.0411847
A-790,4-methoxy-3-nitrobenzoic acid,"InChI=1S/C8H7NO5/c1-14-7-3-2-5(8(10)11)4-6(7)9(12)13/h2-4H,1H3,(H,10,11)",ANXBDAFDZSXOPQ-UHFFFAOYSA-N,COc1ccc(cc1[N+]([O-])=O)C(O)=O,-2.661319514,0,1,G1,197.146,1.3016,46.6077,14,4,1,6,3,74,1,0,0,1,89.67,78.88356415,3.274414445,387.3180706
A-791,"androsta-1,4-diene-3,17-dione","InChI=1S/C19H24O2/c1-18-9-7-13(20)11-12(18)3-4-14-15-5-6-17(21)19(15,2)10-8-16(14)18/h7,9,11,14-16H,3-6,8,10H2,1-2H3",LUJVUUWNAPIQQI-UHFFFAOYSA-N,CC12CCC3C(CCC4=CC(=O)C=CC34C)C1CCC2=O,-2.820459609,0.015229805,2,G3,284.399,3.8634,81.623,21,2,0,2,0,112,0,3,4,4,34.14,126.2287226,1.720414103,584.3737738
A-792,2-phenylethyl pivalate,"InChI=1S/C13H18O2/c1-13(2,3)12(14)15-10-9-11-7-5-4-6-8-11/h4-8H,9-10H2,1-3H3",DPVYDTACPLLHCF-UHFFFAOYSA-N,CC(C)(C)C(=O)OCCc1ccccc1,-3.675280089,0,1,G1,206.285,2.8184,60.56,15,2,0,2,3,82,1,0,0,1,26.3,91.26106525,2.316748608,309.0578797
A-793,1-cyclohexylethyl acetate,"InChI=1S/C10H18O2/c1-8(12-9(2)11)10-6-4-3-5-7-10/h8,10H,3-7H2,1-2H3",JAVZALBKNIHSLL-UHFFFAOYSA-N,CC(OC(C)=O)C1CCCCC1,-3.597623767,0,1,G1,170.252,2.5183,47.803,12,2,0,2,2,70,0,1,1,1,26.3,74.29296623,2.288661509,147.9175691
A-794,"4-(2,6,6-trimethylcyclohex-1-en-1-yl)butan-2-one","InChI=1S/C13H22O/c1-10-6-5-9-13(3,4)12(10)8-7-11(2)14/h5-9H2,1-4H3",QJJDNZGPQDGNDX-UHFFFAOYSA-N,CC(=O)CCC1=C(C)CCCC1(C)C,-3.655044576,0,1,G1,194.318,3.8822,60.247,14,1,0,1,3,80,0,0,1,1,17.07,87.58464431,2.745230748,258.4091282
A-797,bromo(ethyl)triphenylphosphorane,"InChI=1S/C20H20P.BrH/c1-2-21(18-12-6-3-7-13-18,19-14-8-4-9-15-19)20-16-10-5-11-17-20;/h3-17H,2H2,1H3;1H/q+1;/p-1",JHYNXXDQQHTCHJ-UHFFFAOYSA-M,[Br-].CC[P+](c1ccccc1)(c2ccccc2)c3ccccc3,-0.937218529,0,1,G1,371.258,1.0044,95.689,22,0,0,2,4,112,3,0,0,3,0,143.8727583,1.76E-06,584.0085833
A-800,"benzyl({[(2,6-dimethylphenyl)carbamoyl]methyl})diethylazanium benzoate hydrate","InChI=1S/C21H28N2O.C7H6O2/c1-5-23(6-2,15-19-13-8-7-9-14-19)16-20(24)22-21-17(3)11-10-12-18(21)4;8-7(9)6-4-2-1-3-5-6/h7-14H,5-6,15-16H2,1-4H3;1-5H,(H,8,9)",VWTINHYPRWEBQY-UHFFFAOYSA-N,CC[N+](CC)(CC(=O)Nc1c(C)cccc1C)Cc2ccccc2.[O-]C(=O)c3ccccc3,-1.020958606,0.012130577,2,G3,446.591,4.34884,131.6736,33,3,1,5,8,174,3,0,0,3,69.23,196.8377891,3.57E-07,1009.272846
A-803,hexan-1-ol,"InChI=1S/C6H14O/c1-2-3-4-5-6-7/h7H,2-6H2,1H3",ZSIAUFGUXNUGDI-UHFFFAOYSA-N,CCCCCCO,-1.382910122,0.275210101,4,G5,102.177,1.559,31.2278,7,1,1,1,4,44,0,0,0,0,20.23,45.35819535,2.447472888,23.3609904
A-808,5-methyl-2-(propan-2-yl)cyclohexan-1-ol,"InChI=1S/C10H20O/c1-7(2)9-5-4-8(3)6-10(9)11/h7-11H,4-6H2,1-3H3/t8-,9+,10-/m1/s1",NOOLISFMXDJSKH-KXUCPTDWSA-N,CC(C)[C@@H]1CC[C@@H](C)C[C@H]1O,-2.570623543,0.045117587,7,G5,156.269,2.4395,47.3498,11,1,1,1,1,66,0,1,1,1,20.23,69.81213266,2.43715926,120.0411847
A-811,"(2E,6E)-3,7-dimethylnona-2,6-dienenitrile","InChI=1S/C11H17N/c1-4-10(2)6-5-7-11(3)8-9-12/h6,8H,4-5,7H2,1-3H3/b10-6+,11-8+",DHJVLXVXNFUSMU-NSJFVGFPSA-N,CC/C(C)=C/CC/C(C)=C/C#N,-3.589641142,0,1,G1,163.264,3.59278,52.652,12,1,0,1,4,66,0,0,0,0,23.79,75.40204579,3.716287221,215.6488367
A-812,5-hexyl-5-methyldihydrofuran-2(3H)-one,"InChI=1S/C11H20O2/c1-3-4-5-6-8-11(2)9-7-10(12)13-11/h3-9H2,1-2H3",ALWUKGXLBSQSMA-UHFFFAOYSA-N,CCCCCCC1(C)CCC(=O)O1,-2.643261824,0,1,G1,184.279,3.0525,52.49,13,2,0,2,5,76,0,1,1,1,26.3,80.65790835,2.160330979,176.9290923
A-813,2-methoxy-2-methylpropane,"InChI=1S/C5H12O/c1-5(2,3)6-4/h1-4H3",BZLVMXJERCGZMT-UHFFFAOYSA-N,COC(C)(C)C,-0.323526854,0.088868539,3,G5,88.15,1.4313,26.762,6,1,0,1,0,38,0,0,0,0,9.23,39.31256471,3.168489873,33.69332843
A-816,sodium 2-amino-5-nitrobenzenesulfonate,"InChI=1S/C6H6N2O5S.Na/c7-5-2-1-4(8(9)10)3-6(5)14(11,12)13;/h1-3H,7H2,(H,11,12,13);/q;+1/p-1",VTMRGLXTSDVXAE-UHFFFAOYSA-M,[Na+].Nc1ccc(cc1[S]([O-])(=O)=O)[N+]([O-])=O,-1.767738518,0,1,G1,240.172,-2.9149,45.472,15,6,1,9,2,76,1,0,0,1,126.36,107.4663052,1.96E-06,486.295663
A-818,Patchoulialcohol,"InChI=1S/C15H26O/c1-10-5-8-15(16)13(2,3)11-6-7-14(15,4)12(10)9-11/h10-12,16H,5-9H2,1-4H3/t10-,11?,12?,14-,15?/m0/s1",GGHMUJBZYLPWFD-DUNKBJDJSA-N,C[C@H]1CCC2(O)C(C)(C)C3CC[C@@]2(C)C1C3,-3.72590382,0,1,G1,222.372,3.6098,66.0668,16,1,1,1,0,92,0,4,4,4,20.23,99.62518092,2.129289415,321.3966411
A-819,"(2-phenylbutan-2-yl)benzene; (2-phenylethyl)benzene; 1,2,4,5-tetraethylbenzene; 1-methyl-2-phenylbenzene; 1-methylnaphthalene; benzene; cyclohexylbenzene; ethenylbenzene; ethylbenzene; phenylbenzene; toluene","InChI=1S/C16H18.C14H14.C14H22.C13H12.C12H16.C12H10.C11H10.C8H10.C8H8.C7H8.C6H6/c1-3-16(2,14-10-6-4-7-11-14)15-12-8-5-9-13-15;1-3-7-13(8-4-1)11-12-14-9-5-2-6-10-14;1-5-11-9-13(7-3)14(8-4)10-12(11)6-2;1-11-7-5-6-10-13(11)12-8-3-2-4-9-12;2*1-3-7-11(8-4-1)12-9-5-2-6-10-12;1-9-5-4-7-10-6-2-3-8-11(9)10;2*1-2-8-6-4-3-5-7-8;1-7-5-3-2-4-6-7;1-2-4-6-5-3-1/h4-13H,3H2,1-2H3;1-10H,11-12H2;9-10H,5-8H2,1-4H3;2-10H,1H3;1,3-4,7-8,12H,2,5-6,9-10H2;1-10H;2-8H,1H3;3-7H,2H2,1H3;2-7H,1H2;2-6H,1H3;1-6H",ILFKMCMFANUWPS-UHFFFAOYSA-N,CCc1ccccc1.CCc2cc(CC)c(CC)cc2CC.CCC(C)(c3ccccc3)c4ccccc4.Cc5ccccc5.Cc6ccccc6c7ccccc7.Cc8cccc9ccccc89.C=Cc%10ccccc%10.C%11CCC(CC%11)c%12ccccc%12.C(Cc%13ccccc%13)c%14ccccc%14.c%15ccccc%15.c%16ccc(cc%16)c%17ccccc%17,-4.588176842,0.107421924,2,G3,1588.403,33.96896,533.295,121,0,0,0,15,618,16,1,1,17,0,731.128701,1.85E-07,4995.82044
A-824,dibenzylamine,"InChI=1S/C14H15N/c1-3-7-13(8-4-1)11-15-12-14-9-5-2-6-10-14/h1-10,15H,11-12H2",BWLUMTFWVZZZND-UHFFFAOYSA-N,C(NCc1ccccc1)c2ccccc2,-2.687630237,0,1,G1,197.281,2.9764,63.4277,15,1,1,1,4,76,2,0,0,2,12.03,90.76824374,1.809580758,341.098159
A-825,"5-methyl-1H-1,2,3-benzotriazole","InChI=1S/C7H7N3/c1-5-3-2-4-6-7(5)9-10-8-6/h2-4H,1H3,(H,8,9,10)",CMGDVUCDZOBDNL-UHFFFAOYSA-N,Cc1cccc2n[nH]nc12,-1.516963539,0,1,G1,133.154,1.26632,38.6257,10,2,1,3,0,50,2,0,0,2,41.57,58.06337329,2.950090305,350.3787059
A-826,3-amino-2-hydroxy-5-nitrobenzene-1-sulfonic acid,"InChI=1S/C6H6N2O6S/c7-4-1-3(8(10)11)2-5(6(4)9)15(12,13)14/h1-2,9H,7H2,(H,12,13,14)",DQIVFTJHYKDOMZ-UHFFFAOYSA-N,Nc1cc(cc(c1O)[S](O)(=O)=O)[N+]([O-])=O,-1.766205568,0,1,G1,234.189,0.1293,48.9882,15,6,3,9,2,82,1,0,0,1,143.76,83.8471393,3.594753989,522.6688114
A-827,"tetrasodium 5-{[(2E)-6-[bis(2-hydroxyethyl)amino]-4-[(4-sulfonatophenyl)amino]-1,2-dihydro-1,3,5-triazin-2-ylidene]amino}-2-[(E)-2-(4-{[(2E)-6-[bis(2-hydroxyethyl)amino]-4-[(4-sulfonatophenyl)amino]-1,2-dihydro-1,3,5-triazin-2-ylidene]amino}-2-sulfonatophenyl)ethenyl]benzene-1-sulfonate","InChI=1S/C40H44N12O16S4.4Na/c53-19-15-51(16-20-54)39-47-35(41-27-5-9-29(10-6-27)69(57,58)59)45-37(49-39)43-31-13-3-25(23-33(31)71(63,64)65)1-2-26-4-14-32(34(24-26)72(66,67)68)44-38-46-36(48-40(50-38)52(17-21-55)18-22-56)42-28-7-11-30(12-8-28)70(60,61)62;;;;/h1-14,23-24,53-56H,15-22H2,(H,57,58,59)(H,60,61,62)(H,63,64,65)(H,66,67,68)(H2,41,43,45,47,49)(H2,42,44,46,48,50);;;;/q;4*+1/p-4/b2-1+;;;;",UGOUPNUFULXHAK-MBCFVHIPSA-J,[Na+].[Na+].[Na+].[Na+].OCCN(CCO)c1nc(Nc2ccc(cc2)[S]([O-])(=O)=O)nc(Nc3ccc(\C=C\c4ccc(Nc5nc(Nc6ccc(cc6)[S]([O-])(=O)=O)nc(n5)N(CCO)CCO)c(c4)[S]([O-])(=O)=O)cc3[S]([O-])(=O)=O)n1,-0.46428681,0.105426683,2,G3,1165.056,-11.5842,252.1028,76,28,8,36,24,384,6,0,0,6,441.66,524.0587738,4.94E-06,3181.666312
A-830,"1,2-dimethyl benzene-1,2-dicarboxylate","InChI=1S/C10H10O4/c1-13-9(11)7-5-3-4-6-8(7)10(12)14-2/h3-6H,1-2H3",NIQCNGHVCWTJSM-UHFFFAOYSA-N,COC(=O)c1ccccc1C(=O)OC,-1.686157925,0.132125129,3,G5,194.186,1.2598,49.121,14,4,0,4,2,74,1,0,0,1,52.6,81.44130624,3.153839931,321.8945604
A-831,"4-{bis[4-(dimethylamino)phenyl]methylidene}-N,N-dimethylcyclohexa-2,5-dien-1-iminium chloride","InChI=1S/C25H30N3.ClH/c1-26(2)22-13-7-19(8-14-22)25(20-9-15-23(16-10-20)27(3)4)21-11-17-24(18-12-21)28(5)6;/h7-18H,1-6H3;1H/q+1;/p-1",ZXJXZNDDNMQXFV-UHFFFAOYSA-M,[Cl-].CN(C)c1ccc(cc1)[C+](c2ccc(cc2)N(C)C)c3ccc(cc3)N(C)C,-2.008588463,0,1,G1,407.989,1.90779,122.856,29,3,0,4,6,152,3,0,0,3,9.72,181.5327806,3.00E-06,760.4230568
A-832,6-heptyloxan-2-one,"InChI=1S/C10H18O2/c1-2-3-4-6-9-7-5-8-10(11)12-9/h9H,2-8H2,1H3",GHBSPIPJMLAMEP-UHFFFAOYSA-N,CCCCCC1CCCC(=O)O1,-1.629032231,0,1,G1,170.252,2.6624,47.873,12,2,0,2,4,70,0,1,1,1,26.3,74.29296623,2.097727746,142.7740057
A-833,"ethyl 4,4,4-trifluoro-3-oxobutanoate","InChI=1S/C6H7F3O3/c1-2-12-5(11)3-4(10)6(7,8)9/h2-3H2,1H3",OCJKUQIPRNZDTK-UHFFFAOYSA-N,CCOC(=O)CC(=O)C(F)(F)F,-1.663024463,0.150512232,2,G3,184.113,1.071,32.312,12,3,0,6,3,70,0,0,0,0,43.37,66.49715724,3.937187016,184.9675568
A-834,"oxydiethane-2,1-diyl dinitrate",InChI=1S/C4H8N2O7/c7-5(8)12-3-1-11-2-4-13-6(9)10/h1-4H2,LYAGTVMJGHTIDH-UHFFFAOYSA-N,[O-][N+](=O)OCCOCCO[N+]([O-])=O,-1.690450821,0.008867077,3,G5,196.115,-0.5804,36.7118,13,7,0,9,8,76,0,0,0,0,113.97,72.3887415,2.996104998,153.8754774
A-841,diphenylsilanediol,"InChI=1S/C12H12O2Si/c13-15(14,11-7-3-1-4-8-11)12-9-5-2-6-10-12/h1-10,13-14H",OLLFKUHHDPMQFR-UHFFFAOYSA-N,O[Si](O)(c1ccccc1)c2ccccc2,-2.733020621,0,1,G1,216.312,0.2276,62.3436,15,2,2,3,2,76,2,0,0,2,40.46,89.70460913,2.442186511,384.3898118
A-842,pentyl pentanoate,"InChI=1S/C10H20O2/c1-3-5-7-9-12-10(11)8-6-4-2/h3-9H2,1-2H3",FGPPDYNPZTUNIU-UHFFFAOYSA-N,CCCCCOC(=O)CCCC,-3.624481304,0,1,G1,172.268,2.91,50.009,12,2,0,2,7,72,0,0,0,0,26.3,75.29879739,3.083720794,110.4062069
A-843,"3-methyl-1-({3-[(3-methyl-2,5-dioxo-2,5-dihydro-1H-pyrrol-1-yl)methyl]phenyl}methyl)-2,5-dihydro-1H-pyrrole-2,5-dione","InChI=1S/C18H16N2O4/c1-11-6-15(21)19(17(11)23)9-13-4-3-5-14(8-13)10-20-16(22)7-12(2)18(20)24/h3-8H,9-10H2,1-2H3",MIIBUHIQXLFJFP-UHFFFAOYSA-N,CC1=CC(=O)N(Cc2cccc(CN3C(=O)C=C(C)C3=O)c2)C1=O,-3.900334993,0,1,G1,324.336,1.3168,85.07,24,4,0,6,4,122,1,0,2,3,74.76,138.5855959,1.738324613,769.9254448
A-844,nickel(2+) ion oxalate,"InChI=1S/C2H2O4.Ni/c3-1(4)2(5)6;/h(H,3,4)(H,5,6);/q;+2/p-2",DOLZKNFSRCEOFV-UHFFFAOYSA-L,[Ni++].[O-]C(=O)C([O-])=O,-3.556228502,0.298698475,2,G3,146.711,-3.5163,10.014,7,4,0,5,0,42,0,0,0,0,80.26,49.06245747,0,75.69058447
A-848,(3Z)-hex-3-en-1-yl benzoate,"InChI=1S/C13H16O2/c1-2-3-4-8-11-15-13(14)12-9-6-5-7-10-12/h3-7,9-10H,2,8,11H2,1H3/b4-3-",BCOXBEHFBZOJJZ-ARJAWSKDSA-N,CC\C=C/CCOC(=O)c1ccccc1,-3.704897417,0,1,G1,204.269,3.1997,60.7725,15,2,0,2,5,80,1,0,0,1,26.3,90.57146222,2.282022036,314.5676548
A-851,"1,4-dimethyl 2-aminobenzene-1,4-dicarboxylate","InChI=1S/C10H11NO4/c1-14-9(12)6-3-4-7(8(11)5-6)10(13)15-2/h3-5H,11H2,1-2H3",DSSKDXUDARIMTR-UHFFFAOYSA-N,COC(=O)c1ccc(c(N)c1)C(=O)OC,-3.718503765,0,1,G1,209.201,0.842,53.5334,15,5,1,5,2,80,1,0,0,1,78.62,86.78119693,3.082627654,400.4089037
A-853,8-ethylundecan-1-amine,"InChI=1S/C13H29N/c1-3-10-13(4-2)11-8-6-5-7-9-12-14/h13H,3-12,14H2,1-2H3",KFBNTNYCQVDLBK-UHFFFAOYSA-N,CCCC(CC)CCCCCCCN,-3.697625957,0,1,G1,199.382,4.112,65.4454,14,1,1,1,10,86,0,0,0,0,26.02,90.4584471,3.153982305,101.4086852
A-855,dodecanedioic acid,"InChI=1S/C12H22O4/c13-11(14)9-7-5-3-1-2-4-6-8-10-12(15)16/h1-10H2,(H,13,14)(H,15,16)",TVIDDXQYHWJXFK-UHFFFAOYSA-N,OC(=O)CCCCCCCCCCC(O)=O,-3.76024149,0.633248127,5,G4,230.304,3.0566,61.4416,16,2,2,4,11,94,0,0,0,0,74.6,96.66512599,2.984708301,179.1954412
A-857,"4,4,8,8-tetramethyloctahydro-4a,7-methanonaphtho[1,8a-b]oxirene","InChI=1S/C15H24O/c1-12(2)7-6-11-15(16-11)13(3,4)10-5-8-14(12,15)9-10/h10-11H,5-9H2,1-4H3",VQHLGZRKOZIABH-UHFFFAOYSA-N,CC1(C)CCC2OC23C(C)(C)C4CCC13C4,-4.6529288,0,1,G1,220.356,3.7703,64.174,16,1,0,1,0,90,0,4,4,4,12.53,98.93866124,1.934409286,369.6312412
A-861,"1-[(9,9-dimethyldecyl)sulfanyl]propan-2-ol","InChI=1S/C15H32OS/c1-14(16)13-17-12-10-8-6-5-7-9-11-15(2,3)4/h14,16H,5-13H2,1-4H3",XROXSXGRRMHJFJ-UHFFFAOYSA-N,CC(O)CSCCCCCCCCC(C)(C)C,-4.730940692,0,1,G1,260.487,4.8772,80.7798,17,2,1,2,10,104,0,0,0,0,20.23,112.7657844,3.040168328,160.7949799
A-862,dodecanoic acid,"InChI=1S/C12H24O2/c1-2-3-4-5-6-7-8-9-10-11-12(13)14/h2-11H2,1H3,(H,13,14)",POULHZVOKOAJMA-UHFFFAOYSA-N,CCCCCCCCCCCC(O)=O,-4.619583571,0.529291786,2,G2,200.322,3.9919,59.4798,14,1,1,2,10,84,0,0,0,0,37.3,87.70937014,2.884064615,132.2834189
A-863,"[2-butyl-4-chloro-1-({4-[2-(2H-1,2,3,4-tetrazol-5-yl)phenyl]phenyl}methyl)-1H-imidazol-5-yl]methanol","InChI=1S/C22H23ClN6O/c1-2-3-8-20-24-21(23)19(14-30)29(20)13-15-9-11-16(12-10-15)17-6-4-5-7-18(17)22-25-27-28-26-22/h4-7,9-12,30H,2-3,8,13-14H2,1H3,(H,25,26,27,28)",PSIFNNKUMBGKDQ-UHFFFAOYSA-N,CCCCc1nc(Cl)c(CO)n1Cc2ccc(cc2)c3ccccc3c4n[nH]nn4,-4.945016986,0,1,G1,422.92,4.2668,115.9235,30,6,2,8,8,154,4,0,0,4,92.51,179.3020834,1.621167978,1105.375518
A-864,lutetium oxide,InChI=1S/2Lu.3O/q2*+3;3*-2,UGBIHFMRUDAMBY-UHFFFAOYSA-N,[O--].[O--].[O--].[Lu+3].[Lu+3],-4.918566536,0,1,G1,397.931,-0.3564,2.0595,5,0,0,5,0,48,0,0,0,0,85.5,88.41878692,0,4.854752972
A-865,2-ethylhexyl 2-sulfanylacetate,"InChI=1S/C10H20O2S/c1-3-5-6-9(4-2)7-12-10(11)8-13/h9,13H,3-8H2,1-2H3",OWHSTLLOZWTNTQ-UHFFFAOYSA-N,CCCCC(CC)COC(=O)CS,-4.635481621,0,1,G1,204.335,2.6758,58.118,13,3,1,3,7,78,0,0,0,0,26.3,86.45386405,3.522832499,136.8864354
A-867,"(1,1-dimethylpropyl)benzene","InChI=1S/C11H16/c1-4-11(2,3)10-8-6-5-7-9-10/h5-9H,4H2,1-3H3",QHTJSSMHBLGUHV-UHFFFAOYSA-N,CCC(C)(C)c1ccccc1,-4.50074592,0.17547296,2,G3,148.249,3.3742,49.759,11,0,0,0,2,60,1,0,0,1,0,69.25611369,2.928444531,208.7397365
A-868,"2-methyl-4-(2,6,6-trimethylcyclohex-2-en-1-yl)butanal","InChI=1S/C14H24O/c1-11-7-5-9-14(3,4)13(11)12(2)8-6-10-15/h7,10,12-13H,5-6,8-9H2,1-4H3",ACVNYUMGXUDACR-UHFFFAOYSA-N,CC(CCC=O)C1C(=CCCC1(C)C)C,-4.653202091,0.44371487,2,G3,208.345,3.9841,64.724,15,1,0,1,4,86,0,0,1,1,17.07,93.94958643,2.740845337,250.0643151