ID,Name,InChI,InChIKey,SMILES,Solubility,SD,Ocurrences,Group,MolWt,MolLogP,MolMR,HeavyAtomCount,NumHAcceptors,NumHDonors,NumHeteroatoms,NumRotatableBonds,NumValenceElectrons,NumAromaticRings,NumSaturatedRings,NumAliphaticRings,RingCount,TPSA,LabuteASA,BalabanJ,BertzCT
A-1638,"3-methyl-N-nitro-3,6-dihydro-2H-1,3,5-oxadiazin-4-amine","InChI=1S/C4H8N4O3/c1-7-3-11-2-5-4(7)6-8(9)10/h2-3H2,1H3,(H,5,6)",GAYLOVDFGKQKCJ-UHFFFAOYSA-N,CN1COCN=C1N[N+]([O-])=O,-1.002292328,0,1,G1,160.133,-0.9993,36.1471,11,5,1,7,1,62,0,0,1,1,80,62.76992153,2.533270858,191.7761921
A-1639,"(2R,3R,4S,5R)-2-(6-hydroxy-9H-purin-9-yl)-5-(hydroxymethyl)oxolane-3,4-diol","InChI=1S/C10H12N4O5/c15-1-4-6(16)7(17)10(19-4)14-3-13-5-8(14)11-2-12-9(5)18/h2-4,6-7,10,15-17H,1H2,(H,11,12,18)",UGQMRVRMYYASKQ-UHFFFAOYSA-N,OCC1OC(C(O)C1O)n2cnc3C(=O)N=CNc23,-1.229848644,0,1,G1,268.229,-2.2689,61.1581,19,8,4,9,2,102,2,1,1,3,133.49,105.6677915,2.060049362,652.6525848
A-1640,"2,3,6-trimethylphenol","InChI=1S/C9H12O/c1-6-4-5-7(2)9(10)8(6)3/h4-5,10H,1-3H3",QQOMQLYQAXGHSU-UHFFFAOYSA-N,Cc1ccc(C)c(O)c1C,-1.935500888,0.023184371,2,G3,136.194,2.31746,42.3178,10,1,1,1,0,54,1,0,0,1,20.23,61.32046321,3.342153808,224.1503334
A-1643,"1,3-xylene","InChI=1S/C8H10/c1-7-4-3-5-8(2)6-7/h3-6H,1-2H3",IVSZLXZYQVIEFR-UHFFFAOYSA-N,Cc1cccc(C)c1,-2.832869038,0.075181238,6,G5,106.168,2.30344,35.916,8,0,0,0,0,42,1,0,0,1,0,50.16128735,3.077660438,159.8981139
A-1646,2-octanamidoacetic acid,"InChI=1S/C10H19NO3/c1-2-3-4-5-6-7-9(12)11-8-10(13)14/h2-8H2,1H3,(H,11,12)(H,13,14)",SAVLIIGUQOSOEP-UHFFFAOYSA-N,CCCCCCCC(=O)NCC(O)=O,-2.111537593,0,1,G1,201.266,1.5477,54.0215,14,2,2,4,8,82,0,0,0,0,66.4,84.69087019,3.22476634,180.2059243
A-1647,"(1,5,5-trimethyl-6-bicyclo[2.2.1]heptanyl) acetate","InChI=1S/C12H20O2/c1-8(13)14-10-11(2,3)9-5-6-12(10,4)7-9/h9-10H,5-7H2,1-4H3",JUWUWIGZUVEFQB-UHFFFAOYSA-N,CC(=O)OC1C(C)(C)C2CCC1(C)C2,-3.874596884,0,1,G1,196.29,2.7643,54.783,14,2,0,2,1,80,0,2,2,2,26.3,86.01701931,2.25154347,264.740407
A-1648,Dioxosilane,InChI=1S/O2Si/c1-3-2,VYPSYNLAJGMNEJ-UHFFFAOYSA-N,O=[Si]=O,-3.602667578,0.406944361,3,G5,60.084,-0.6184,7.127,3,2,0,3,0,16,0,0,0,0,34.14,19.40222479,3.265986324,23.77443751
A-1650,(2S)-2-{[(benzyloxy)carbonyl]amino}-2-cyclohexylacetic acid,"InChI=1S/C16H21NO4/c18-15(19)14(13-9-5-2-6-10-13)17-16(20)21-11-12-7-3-1-4-8-12/h1,3-4,7-8,13-14H,2,5-6,9-11H2,(H,17,20)(H,18,19)/t14-/m0/s1",CUSYTUPJAYLNFQ-AWEZNQCLSA-N,OC(=O)[C@@H](NC(=O)OCc1ccccc1)C2CCCCC2,-3.285433603,0,1,G1,291.347,2.9463,77.7615,21,3,2,5,5,114,1,1,1,2,75.63,123.8556785,1.84428134,468.4251373
A-1651,"(4E)-3-methyl-5-(2,6,6-trimethylcyclohex-1-en-1-yl)penta-1,4-dien-3-ol","InChI=1S/C15H24O/c1-6-15(5,16)11-9-13-12(2)8-7-10-14(13,3)4/h6,9,11,16H,1,7-8,10H2,2-5H3/b11-9+",PZGYHDPZANRCSM-PKNBQFBNSA-N,CC1=C(/C=C/C(C)(O)C=C)C(C)(C)CCC1,-3.164147933,0,1,G1,220.356,4.0062,70.2928,16,1,1,1,3,90,0,0,1,1,20.23,99.56803413,2.980955499,329.3441143
A-1652,methyl oct-2-ynoate,"InChI=1S/C9H14O2/c1-3-4-5-6-7-8-9(10)11-2/h3-6H2,1-2H3",FRLZQXRXIKQFNS-UHFFFAOYSA-N,CCCCCC#CC(=O)OC,-3.009132774,0,1,G1,154.209,1.7431,43.934,11,2,0,2,3,62,0,0,0,0,26.3,67.93308066,3.323379547,162.1368841
A-1654,manganese(2+) ion diphosphinate,"InChI=1S/Mn.2HO2P/c;2*1-3-2/h;2*(H,1,2)/q+2;;/p-2",FLFJVPPJGJSHMF-UHFFFAOYSA-L,[Mn++].[O-]P=O.[O-]P=O,-0.081304092,0,1,G1,180.882,-0.8957,15.213,7,4,0,7,0,41,0,0,0,0,80.26,53.97718784,-4.00E-08,30.67103446
A-1662,"1,2-dimethyl-3-nitrobenzene","InChI=1S/C8H9NO2/c1-6-4-3-5-8(7(6)2)9(10)11/h3-5H,1-2H3",FVHAWXWFPBPFOS-UHFFFAOYSA-N,Cc1cccc(c1C)[N+]([O-])=O,-3.003359989,0.053952699,2,G3,151.165,2.21164,42.5704,11,2,0,3,1,58,1,0,0,1,43.14,64.81426307,3.273580822,294.1435742
A-1665,phenyl 2-hydroxybenzoate,"InChI=1S/C13H10O3/c14-12-9-5-4-8-11(12)13(15)16-10-6-2-1-3-7-10/h1-9,14H",ZQBAKBUEJOMQEX-UHFFFAOYSA-N,Oc1ccccc1C(=O)Oc2ccccc2,-3.154768756,0,1,G1,214.22,2.6114,59.5073,16,3,1,3,2,80,2,0,0,2,46.53,92.92274052,2.186811346,491.5407102
A-1668,"3,7-dimethyloct-6-en-1-yl acetate","InChI=1S/C12H22O2/c1-10(2)6-5-7-11(3)8-9-14-12(4)13/h6,11H,5,7-9H2,1-4H3",JOZKFWLRHCDGJA-UHFFFAOYSA-N,CC(CCOC(C)=O)CCC=C(C)C,-4.09593873,0,1,G1,198.306,3.3221,59.079,14,2,0,2,6,82,0,0,0,0,26.3,87.33907858,3.411265111,190.4984101
A-1669,"3,3,4,4,5,5,6,6,6-nonafluorohex-1-ene","InChI=1S/C6H3F9/c1-2-3(7,8)4(9,10)5(11,12)6(13,14)15/h2H,1H2",GVEUEBXMTMZVSD-UHFFFAOYSA-N,FC(F)(F)C(F)(F)C(F)(F)C(F)(F)C=C,-4.197937601,0,1,G1,246.072,3.6406,31.093,15,0,0,9,3,90,0,0,0,0,0,77.36417719,5.474544775,247.818409
A-1670,2-phenylethyl 2-phenylacetate,"InChI=1S/C16H16O2/c17-16(13-15-9-5-2-6-10-15)18-12-11-14-7-3-1-4-8-14/h1-10H,11-13H2",ZOZIRNMDEZKZHM-UHFFFAOYSA-N,O=C(Cc1ccccc1)OCCc2ccccc2,-4.188747793,0.075206544,2,G3,240.302,3.015,71.251,18,2,0,2,5,92,2,0,0,2,26.3,107.2233331,1.725777236,476.9648515
A-1672,"2-({2,2-bis[(prop-2-enoyloxy)methyl]butoxy}methyl)-2-[(prop-2-enoyloxy)methyl]butyl prop-2-enoate","InChI=1S/C24H34O9/c1-7-19(25)30-15-23(11-5,16-31-20(26)8-2)13-29-14-24(12-6,17-32-21(27)9-3)18-33-22(28)10-4/h7-10H,1-4,11-18H2,5-6H3",XRMBQHTWUBGQDN-UHFFFAOYSA-N,CCC(COCC(CC)(COC(=O)C=C)COC(=O)C=C)(COC(=O)C=C)COC(=O)C=C,-4.492785524,0,1,G1,466.527,2.7126,120.891,33,9,0,9,18,184,0,0,0,0,114.43,194.5883221,5.504374788,615.4465361
A-1674,"(2,4,6-trioxo-1,3,5-triazine-1,3,5(2H,4H,6H)-triyl)tri-2,1-ethanediyl triacrylate","InChI=1S/C18H21N3O9/c1-4-13(22)28-10-7-19-16(25)20(8-11-29-14(23)5-2)18(27)21(17(19)26)9-12-30-15(24)6-3/h4-6H,1-3,7-12H2",YIJYFLXQHDOQGW-UHFFFAOYSA-N,C=CC(=O)OCCN1C(=O)N(CCOC(=O)C=C)C(=O)N(CCOC(=O)C=C)C1=O,-2.451419462,0,1,G1,423.378,-1.6407,102.69,30,12,0,12,12,162,1,0,0,1,144.9,169.4353524,3.23880086,854.3785362
A-1676,"Octanoic acid, ester with 1,2,3-propanetriol","InChI=1S/C8H16O2.C3H8O3/c1-2-3-4-5-6-7-8(9)10;4-1-3(6)2-5/h2-7H2,1H3,(H,9,10);3-6H,1-2H2",SQABAALQCGKFFO-UHFFFAOYSA-N,CCCCCCCC(O)=O.OCC(O)CO,-3.200000781,0,1,G1,236.308,0.7634,61.1902,16,4,4,5,8,98,0,0,0,0,97.99,96.73296043,0,145.3103483
A-1677,4-isopropylbenzonitrile,"InChI=1S/C10H11N/c1-8(2)10-5-3-9(7-11)4-6-10/h3-6,8H,1-2H3",YFDJCWXBKWRDPW-UHFFFAOYSA-N,CC(C)c1ccc(cc1)C#N,-2.988795303,0,1,G1,145.205,2.68168,45.246,11,1,0,1,1,56,1,0,0,1,23.79,67.28375126,2.938904554,263.9194058
A-1678,"1,2-bis(prop-2-en-1-yl) benzene-1,2-dicarboxylate","InChI=1S/C14H14O4/c1-3-9-17-13(15)11-7-5-6-8-12(11)14(16)18-10-4-2/h3-8H,1-2,9-10H2",QUDWYFHPNIMBFC-UHFFFAOYSA-N,C=CCOC(=O)c1ccccc1C(=O)OCC=C,-3.221135687,0.286250599,4,G5,246.262,2.3722,67.401,18,4,0,4,6,94,1,0,0,1,52.6,105.5218686,2.907709957,419.6167253
A-1679,"1,3-diphenylguanidine","InChI=1S/C13H13N3/c14-13(15-11-7-3-1-4-8-11)16-12-9-5-2-6-10-12/h1-10H,(H3,14,15,16)",OWRCNXZUPFZXOS-UHFFFAOYSA-N,NC(Nc1ccccc1)=Nc2ccccc2,-2.157516386,1.067788037,8,G4,211.268,2.7449,67.7891,16,1,2,3,2,80,2,0,0,2,50.41,94.63851481,2.090928375,463.0510843
A-1680,2-methylpropane-2-thiol,"InChI=1S/C4H10S/c1-4(2,3)5/h5H,1-3H3",WMXCDAVJEZZYLT-UHFFFAOYSA-N,CC(C)(C)S,-1.787845868,0,1,G1,90.191,1.7147,28.739,5,1,1,1,0,32,0,0,0,0,0,38.98914403,3.023715784,19.11941548
A-1685,"3,3,5-trimethylcyclohexanol","InChI=1S/C9H18O/c1-7-4-8(10)6-9(2,3)5-7/h7-8,10H,4-6H2,1-3H3",BRRVXFOKWJKTGG-UHFFFAOYSA-N,CC1CC(O)CC(C)(C)C1,-1.991659848,0.046952251,2,G3,142.242,2.1935,42.8028,10,1,1,1,0,60,0,1,1,1,20.23,63.44719054,2.509938884,105.8966738
A-1686,"N,N-dimethylaniline","InChI=1S/C8H11N/c1-9(2)8-6-4-3-5-7-8/h3-7H,1-2H3",JLTDJTHDQAWBAV-UHFFFAOYSA-N,CN(C)c1ccccc1,-1.922073697,0.041093378,2,G3,121.183,1.7526,40.769,9,1,0,1,1,48,1,0,0,1,3.24,55.92112102,2.848234051,167.1823264
A-1687,"1-chloro-2,5-dimethoxy-4-nitrobenzene","InChI=1S/C8H8ClNO4/c1-13-7-4-6(10(11)12)8(14-2)3-5(7)9/h3-4H,1-2H3",ORLPGMKKCAEWOW-UHFFFAOYSA-N,COc1cc(c(OC)cc1Cl)[N+]([O-])=O,-3.179312365,0,1,G1,217.608,2.2654,51.2104,14,4,0,6,3,76,1,0,0,1,61.6,85.34461976,3.319656306,366.6040663
A-1688,potassium iodide,InChI=1S/HI.K/h1H;/q;+1/p-1,NLKNQRATVPKPDG-UHFFFAOYSA-M,[K+].[I-],0.935222717,0.092431073,3,G5,166.002,-5.992,0,2,0,0,2,0,8,0,0,0,0,0,73.43483487,0,2
A-1689,"N-octyl-1-{10-[4-(octylimino)-1,4-dihydropyridin-1-yl]decyl}-1,4-dihydropyridin-4-imine dihydrochloride","InChI=1S/C36H62N4.2ClH/c1-3-5-7-9-15-19-27-37-35-23-31-39(32-24-35)29-21-17-13-11-12-14-18-22-30-40-33-25-36(26-34-40)38-28-20-16-10-8-6-4-2;;/h23-26,31-34H,3-22,27-30H2,1-2H3;2*1H",SMGTYJPMKXNQFY-UHFFFAOYSA-N,[H+].[H+].[Cl-].[Cl-].CCCCCCCCN=C1C=CN(CCCCCCCCCCN2C=CC(C=C2)=NCCCCCCCC)C=C1,-1.642786266,0,1,G1,623.842,3.866,175.636,42,4,0,6,25,242,2,0,0,2,34.58,273.9026595,-4.20E-06,874.0964498
A-1690,(2E)-3-phenylprop-2-enal,InChI=1S/C9H8O/c10-8-4-7-9-5-2-1-3-6-9/h1-8H/b7-4+,KJPRLNWUNMBNBZ-QPJJXVBHSA-N,O=C/C=C/c1ccccc1,-1.968818258,0.118825276,3,G5,132.162,1.8987,41.54,10,1,0,1,2,50,1,0,0,1,17.07,59.99814853,2.758767001,223.7433991
A-1692,"1,1,2,2,3,3,4,4,4-nonafluoro-N-(2-hydroxyethyl)-N-methylbutane-1-sulfonamide","InChI=1S/C7H8F9NO3S/c1-17(2-3-18)21(19,20)7(15,16)5(10,11)4(8,9)6(12,13)14/h18H,2-3H2,1H3",DSRUAYIFDCHEEV-UHFFFAOYSA-N,CN(CCO)[S](=O)(=O)C(F)(F)C(F)(F)C(F)(F)C(F)(F)F,-3.403685043,0,1,G1,357.194,1.666,49.5316,21,3,1,14,6,128,0,0,0,0,57.61,111.7335657,6.016497114,472.2231763
A-1693,"N-[(8E)-1,5-dimethylbicyclo[3.2.1]octan-8-ylidene]hydroxylamine","InChI=1S/C10H17NO/c1-9-4-3-5-10(2,7-6-9)8(9)11-12/h12H,3-7H2,1-2H3",RADAAKRXEPVXBU-UHFFFAOYSA-N,CC12CCCC(C)(CC1)C2=NO,-3.074152207,0,1,G1,167.252,2.8069,48.5205,12,2,1,2,0,68,0,2,2,2,32.59,73.65566249,2.419585593,215.9930785
A-1694,N-(4-hydroxyphenyl)acetamide,"InChI=1S/C8H9NO2/c1-6(10)9-7-2-4-8(11)5-3-7/h2-5,11H,1H3,(H,9,10)",RZVAJINKPMORJF-UHFFFAOYSA-N,CC(=O)Nc1ccc(O)cc1,-1.033323213,0.079316286,3,G5,151.165,1.3506,42.4105,11,2,2,3,1,58,1,0,0,1,49.33,64.66690538,2.736298072,253.2994976
A-1699,(e)-But-2-enedioate,"InChI=1S/C4H4O4.Fe/c5-3(6)1-2-4(7)8;/h1-2H,(H,5,6)(H,7,8);/q;+2/p-2/b2-1-;",PMVSDNDAUGGCCE-ODZAUARKSA-L,[Fe++].[O-]C(=O)\C=C/C([O-])=O,-2.084067899,0,1,G1,169.901,-2.9601,19.154,9,4,0,5,2,50,0,0,0,0,80.26,61.65160632,0,123.5030616
A-1700,"(2E)-1-(2,6,6-trimethylcyclohex-2-en-1-yl)but-2-en-1-one","InChI=1S/C13H20O/c1-5-7-11(14)12-10(2)8-6-9-13(12,3)4/h5,7-8,12H,6,9H2,1-4H3/b7-5+",CRIGTVCBMUKRSL-FNORWQNLSA-N,C/C=C/C(=O)C1C(=CCCC1(C)C)C,-3.137855765,0,1,G1,192.302,3.5141,60.083,14,1,0,1,2,78,0,0,1,1,17.07,86.89504128,2.967318349,281.6106883
A-1701,2-methyl-4-nitroaniline,"InChI=1S/C7H8N2O2/c1-5-4-6(9(10)11)2-3-7(5)8/h2-4H,8H2,1H3",XTTIQGSLJBWVIV-UHFFFAOYSA-N,Cc1cc(ccc1N)[N+]([O-])=O,-3.036152484,0,1,G1,152.153,1.48542,42.2458,11,3,1,4,1,58,1,0,0,1,69.16,63.78921165,3.151549668,296.4920898
A-1702,nonan-1-ol,"InChI=1S/C9H20O/c1-2-3-4-5-6-7-8-9-10/h10H,2-9H2,1H3",ZWRUINPWMLAQRD-UHFFFAOYSA-N,CCCCCCCCCO,-3.013011871,0.43522046,4,G5,144.258,2.7293,45.0788,10,1,1,1,7,62,0,0,0,0,20.23,64.4530217,2.647604849,44.68995594
A-1703,"dipropyl cyclohexane-1,2-dicarboxylate","InChI=1S/C14H24O4/c1-3-9-17-13(15)11-7-5-6-8-12(11)14(16)18-10-4-2/h11-12H,3-10H2,1-2H3",AGEFUZCBLJQXIA-UHFFFAOYSA-N,CCCOC(=O)C1CCCCC1C(=O)OCCC,-3.262691733,0,1,G1,256.342,2.6992,67.948,18,4,0,4,6,104,0,1,1,1,52.6,109.027802,2.552620703,246.9675568
A-1704,"2-(4-aminophenyl)-6-methyl-1,3-benzothiazole-7-sulfonic acid","InChI=1S/C14H12N2O3S2/c1-8-2-7-11-12(13(8)21(17,18)19)20-14(16-11)9-3-5-10(15)6-4-9/h2-7H,15H2,1H3,(H,17,18,19)",KGZUHYIHYBDNLC-UHFFFAOYSA-N,Cc1ccc2nc(sc2c1[S](O)(=O)=O)c3ccc(N)cc3,-4.332499462,0,1,G1,320.395,3.10062,84.02,21,5,2,7,2,108,3,0,0,3,93.28,125.3636419,2.279131976,928.757566
A-1705,"1,4-dioxacycloheptadecane-5,17-dione",InChI=1S/C15H26O4/c16-14-10-8-6-4-2-1-3-5-7-9-11-15(17)19-13-12-18-14/h1-13H2,XRHCAGNSDHCHFJ-UHFFFAOYSA-N,O=C1CCCCCCCCCCCC(=O)OCCO1,-4.261695179,0.167767963,4,G5,270.369,3.3775,72.705,19,4,0,4,0,110,0,1,1,1,52.6,115.3927441,2.216244892,236.8711889
A-1707,5-chloro-2-(4-chlorophenoxy)phenol,"InChI=1S/C12H8Cl2O2/c13-8-1-4-10(5-2-8)16-12-6-3-9(14)7-11(12)15/h1-7,15H",BYNQFCJOHGOKSS-UHFFFAOYSA-N,Oc1cc(Cl)ccc1Oc2ccc(Cl)cc2,-4.239393124,0.118871871,3,G5,255.1,4.4913,64.6428,16,2,1,4,2,82,2,0,0,2,29.46,103.0028088,2.233817118,494.871989
A-1708,"(3E)-3,7-dimethylocta-1,3,6-triene","InChI=1S/C10H16/c1-5-10(4)8-6-7-9(2)3/h5,7-8H,1,6H2,2-4H3/b10-8+",IHPKGUQCSIINRJ-CSKARUKUSA-N,CC(C)=CC\C=C(/C)C=C,-3.972930257,0,1,G1,136.238,3.475,48.002,10,0,0,0,3,56,0,0,0,0,0,63.95492096,3.735272764,154.8771238
A-1710,"tert-butyl 3,5,5-trimethylhexaneperoxoate","InChI=1S/C13H26O3/c1-10(9-12(2,3)4)8-11(14)15-16-13(5,6)7/h10H,8-9H2,1-7H3",VSJBBIJIXZVVLQ-UHFFFAOYSA-N,CC(CC(=O)OOC(C)(C)C)CC(C)(C)C,-4.210096102,0,1,G1,230.348,3.7221,64.783,16,3,0,3,4,96,0,0,0,0,35.53,99.43646428,3.882428086,220.3126556
A-1712,"N~2~-(4,6-diamino-1,3,5-triazin-2-yl)-1,3,5-triazine-2,4,6-triamine","InChI=1S/C6H9N11/c7-1-11-2(8)14-5(13-1)17-6-15-3(9)12-4(10)16-6/h(H9,7,8,9,10,11,12,13,14,15,16,17)",YZEZMSPGIPTEBA-UHFFFAOYSA-N,Nc1nc(N)nc(Nc2nc(N)nc(N)n2)n1,-4.225336978,0.26236641,5,G5,235.215,-1.871,60.5863,17,11,5,11,2,88,2,0,0,2,193.45,94.71581018,2.30519864,461.6530739
A-1713,butyl 2-({[(2-butoxy-2-oxoethyl)sulfanyl]methyl}sulfanyl)acetate,"InChI=1S/C13H24O4S2/c1-3-5-7-16-12(14)9-18-11-19-10-13(15)17-8-6-4-2/h3-11H2,1-2H3",QCWRDNFBMVSDEY-UHFFFAOYSA-N,CCCCOC(=O)CSCSCC(=O)OCCCC,-4.343077858,0,1,G1,308.465,3.0969,81.517,19,6,0,6,12,112,0,0,0,0,52.6,123.9149111,3.293019474,222.7977159
A-1714,methyl 1-methyl-4-(propan-2-yl)bicyclo[2.2.2]oct-5-ene-2-carboxylate,"InChI=1S/C14H22O2/c1-10(2)14-7-5-13(3,6-8-14)11(9-14)12(15)16-4/h5,7,10-11H,6,8-9H2,1-4H3",NXAJZPARDMDLKH-UHFFFAOYSA-N,COC(=O)C1CC2(CCC1(C)C=C2)C(C)C,-4.200866126,0,1,G1,222.328,3.178,63.875,16,2,0,2,2,90,0,1,3,3,26.3,98.05730051,2.335355995,331.627043
A-1715,methylcyclohexane,"InChI=1S/C7H14/c1-7-5-3-2-4-6-7/h7H,2-6H2,1H3",UAEPNZWRGJTJPN-UHFFFAOYSA-N,CC1CCCCC1,-3.845934801,0.028967401,2,G3,98.189,2.5866,32.249,7,0,0,0,0,42,0,1,1,1,0,45.92307256,2.12291795,42
A-1716,2-phenylpropane-2-peroxol,"InChI=1S/C9H12O2/c1-9(2,11-10)8-6-4-3-5-7-8/h3-7,10H,1-2H3",YQHLDYVWEZKEOX-UHFFFAOYSA-N,CC(C)(OO)c1ccccc1,-1.039379878,0,1,G1,152.193,2.4113,43.1818,11,2,1,2,2,60,1,0,0,1,29.46,66.36330376,2.928444531,216.2641593
A-1718,7-oxabicyclo[4.1.0]heptan-3-ylmethyl 7-oxabicyclo[4.1.0]heptane-3-carboxylate,"InChI=1S/C14H20O4/c15-14(9-2-4-11-13(6-9)18-11)16-7-8-1-3-10-12(5-8)17-10/h8-13H,1-7H2",YXALYBMHAYZKAP-UHFFFAOYSA-N,O=C(OCC1CCC2OC2C1)C3CCC4OC4C3,-1.26048469,0,1,G1,252.31,1.6646,62.963,18,4,0,4,3,100,0,4,4,4,51.36,106.9623317,1.225301372,355.7031543
A-1720,dimethyl carbonate,InChI=1S/C3H6O3/c1-5-3(4)6-2/h1-2H3,IEJIGPNLZYLLBP-UHFFFAOYSA-N,COC(=O)OC,0.185260351,0.040157834,2,G3,90.078,0.3992,19.414,6,3,0,3,0,36,0,0,0,0,35.53,35.85774782,2.988160882,44
A-1723,cyclohexyl 2-methylprop-2-enoate,"InChI=1S/C10H16O2/c1-8(2)10(11)12-9-6-4-3-5-7-9/h9H,1,3-7H2,2H3",OIWOHHBRDFKZNC-UHFFFAOYSA-N,CC(=C)C(=O)OC1CCCCC1,-3.088564823,0.006751235,2,G3,168.236,2.4384,47.779,12,2,0,2,2,68,0,1,1,1,26.3,73.6033632,2.291009335,178.2776008
A-1726,2-phenylethyl propanoate,"InChI=1S/C11H14O2/c1-2-11(12)13-9-8-10-6-4-3-5-7-10/h3-7H,2,8-9H2,1H3",HVGZQCSMLUDISR-UHFFFAOYSA-N,CCC(=O)OCCc1ccccc1,-3.117444335,0,1,G1,178.231,2.1823,51.396,13,2,0,2,4,70,1,0,0,1,26.3,78.53118102,2.241376543,254.0526058
A-1727,benzyl butanoate,"InChI=1S/C11H14O2/c1-2-6-11(12)13-9-10-7-4-3-5-8-10/h3-5,7-8H,2,6,9H2,1H3",VONGZNXBKCOUHB-UHFFFAOYSA-N,CCCC(=O)OCc1ccccc1,-3.117444335,0.158343549,2,G3,178.231,2.5299,51.146,13,2,0,2,4,70,1,0,0,1,26.3,78.53118102,2.310042823,254.0526058
A-1728,2-amino-5-acetamidobenzene-1-sulfonic acid,"InChI=1S/C8H10N2O4S/c1-5(11)10-6-2-3-7(9)8(4-6)15(12,13)14/h2-4H,9H2,1H3,(H,10,11)(H,12,13,14)",PHRVJZNHPVJYOM-UHFFFAOYSA-N,CC(=O)Nc1ccc(N)c(c1)[S](O)(=O)=O,-1.231856439,0,1,G1,230.245,0.4739,54.9727,15,4,3,7,2,82,1,0,0,1,109.49,86.84119834,3.231502193,495.3631753
A-1729,(aminooxy)sulfonic acid,"InChI=1S/H3NO4S/c1-5-6(2,3)4/h1H2,(H,2,3,4)",DQPBABKTKYNPMH-UHFFFAOYSA-N,NO[S](O)(=O)=O,0.07528272,0,1,G1,113.094,-1.3205,16.821,6,4,2,6,1,38,0,0,0,0,89.62,34.61942323,3.850621639,109.509775
A-1730,(3Z)-hex-3-en-1-yl methyl carbonate,"InChI=1S/C8H14O3/c1-3-4-5-6-7-11-8(9)10-2/h4-5H,3,6-7H2,1-2H3/b5-4+",BLOXMGXSDAAJGX-SNAWJCMRSA-N,CC/C=C/CCOC(=O)OC,-3.069830648,0,1,G1,158.197,2.1257,42.405,11,3,0,3,4,64,0,0,0,0,35.53,66.99285536,3.13878486,129.2988603
A-1734,bicyclo[2.2.1]hept-2-ene,"InChI=1S/C7H10/c1-2-7-4-3-6(1)5-7/h1-2,6-7H,3-5H2",JFNLZVQOOSMTJK-UHFFFAOYSA-N,C1CC2CC1C=C2,-2.847721205,0,1,G1,94.157,1.9725,29.971,7,0,0,0,0,38,0,1,2,2,0,44.22763837,2.271200305,90.60593782
A-1735,"2,4-dimethyl-1-nitrobenzene","InChI=1S/C8H9NO2/c1-6-3-4-8(9(10)11)7(2)5-6/h3-5H,1-2H3",BBUPBICWUURTNP-UHFFFAOYSA-N,Cc1ccc(c(C)c1)[N+]([O-])=O,-3.055599607,0,1,G1,151.165,2.21164,42.5704,11,2,0,3,1,58,1,0,0,1,43.14,64.81426307,3.196069662,294.1435742
A-1736,"2-(1,3-benzothiazol-2-ylsulfanyl)acetic acid","InChI=1S/C9H7NO2S2/c11-8(12)5-13-9-10-6-3-1-2-4-7(6)14-9/h1-4H,5H2,(H,11,12)",ZZUQWNYNSKJLPI-UHFFFAOYSA-N,OC(=O)CSc1sc2ccccc2n1,-3.228897985,0,1,G1,225.294,2.473,57.9798,14,4,1,5,3,72,2,0,0,2,50.19,88.78182901,2.224690447,433.5348232
A-1740,3-(4-tert-butylphenyl)propanal,"InChI=1S/C13H18O/c1-13(2,3)12-8-6-11(7-9-12)5-4-10-14/h6-10H,4-5H2,1-3H3",FZJUFJKVIYFBSY-UHFFFAOYSA-N,CC(C)(C)c1ccc(CCC=O)cc1,-3.158832906,0,1,G1,190.286,3.1156,59.527,14,1,0,1,3,76,1,0,0,1,17.07,86.14752002,2.733497104,290.006756
A-1741,"3,5-dinitrobenzoic acid","InChI=1S/C7H4N2O6/c10-7(11)4-1-5(8(12)13)3-6(2-4)9(14)15/h1-3H,(H,10,11)",VYWYYJYRVSBHJQ-UHFFFAOYSA-N,OC(=O)c1cc(cc(c1)[N+]([O-])=O)[N+]([O-])=O,-2.207649723,0.005724862,2,G3,212.117,1.2012,46.7101,15,5,1,8,3,78,1,0,0,1,123.58,82.05805253,3.387380075,375.7865269
A-1743,"N-(2,2,6,6-tetramethylpiperidin-4-yl)-N-{6-[N-(2,2,6,6-tetramethylpiperidin-4-yl)formamido]hexyl}formamide","InChI=1S/C26H50N4O2/c1-23(2)15-21(16-24(3,4)27-23)29(19-31)13-11-9-10-12-14-30(20-32)22-17-25(5,6)28-26(7,8)18-22/h19-22,27-28H,9-18H2,1-8H3",UONLDZHKYCFZRW-UHFFFAOYSA-N,CC1(C)CC(CC(C)(C)N1)N(CCCCCCN(C=O)C2CC(C)(C)NC(C)(C)C2)C=O,-1.539955769,0,1,G1,450.712,4.082,132.6394,32,4,2,6,11,186,0,2,2,2,64.68,196.7935775,1.743307482,543.3164176
A-1744,aminothiourea,"InChI=1S/CH5N3S/c2-1(5)4-3/h3H2,(H3,2,4,5)",BRWIZMBXBAOCCF-UHFFFAOYSA-N,NNC(N)=S,-0.845760907,0.056971676,2,G3,91.139,-1.3067,24.1085,5,2,3,4,0,30,0,0,0,0,64.07,35.29781087,2.847378923,42.15772188
A-1746,"2-(heptan-3-yl)-1,3-dioxolane","InChI=1S/C10H20O2/c1-3-5-6-9(4-2)10-11-7-8-12-10/h9-10H,3-8H2,1-2H3",LQSZQAHPRJMRET-UHFFFAOYSA-N,CCCCC(CC)C1OCCO1,-3.119596868,0,1,G1,172.268,2.5757,48.998,12,2,0,2,5,72,0,1,1,1,18.46,75.24498936,2.223405501,108.4062069
A-1747,2-methyl-2-[(2-methylbutan-2-yl)peroxy]butane,"InChI=1S/C10H22O2/c1-7-9(3,4)11-12-10(5,6)8-2/h7-8H2,1-6H3",JJRDRFZYKKFYMO-UHFFFAOYSA-N,CCC(C)(C)OOC(C)(C)CC,-4.100435339,0,1,G1,174.284,3.3118,50.91,12,2,0,2,5,74,0,0,0,0,18.46,76.18011583,3.820913091,111.8002691
A-1748,"1-(2,6,6-trimethylcyclohex-1-en-1-yl)pent-1-en-3-one","InChI=1S/C14H22O/c1-5-12(15)8-9-13-11(2)7-6-10-14(13,3)4/h8-9H,5-7,10H2,1-4H3/b9-8+",LMWNGLDCJDIIBR-CMDGGOBGSA-N,CCC(=O)/C=C/C1=C(C)CCCC1(C)C,-4.187455475,0.420773745,2,G3,206.329,4.0483,64.77,15,1,0,1,3,84,0,0,1,1,17.07,93.2599834,2.897763017,305.30039
A-1749,"2,2,4-trimethyl-1-[(2-methylpropanoyl)oxy]pentan-3-yl 2-methylpropanoate","InChI=1S/C16H30O4/c1-10(2)13(20-15(18)12(5)6)16(7,8)9-19-14(17)11(3)4/h10-13H,9H2,1-8H3",OMVSWZDEEGIJJI-UHFFFAOYSA-N,CC(C)C(OC(=O)C(C)C)C(C)(C)COC(=O)C(C)C,-4.333139569,0,1,G1,286.412,3.4356,79.134,20,4,0,4,7,118,0,0,0,0,52.6,122.7635174,4.794408138,329.3685738
A-1750,4-(propan-2-yl)cyclohexyl propanoate,"InChI=1S/C12H22O2/c1-4-12(13)14-11-7-5-10(6-8-11)9(2)3/h9-11H,4-8H2,1-3H3",FFEOEKMMMQFWBO-UHFFFAOYSA-N,CCC(=O)OC1CCC(CC1)C(C)C,-4.173484214,0,1,G1,198.306,3.1544,56.967,14,2,0,2,3,82,0,1,1,1,26.3,87.02285046,2.25175502,178.7607507
A-1751,trimethoxy(octyl)silane,"InChI=1S/C11H26O3Si/c1-5-6-7-8-9-10-11-15(12-2,13-3)14-4/h5-11H2,1-4H3",NMEPHPOFYLLFTK-UHFFFAOYSA-N,CCCCCCCC[Si](OC)(OC)OC,-4.246128199,0,1,G1,234.412,3.225,64.964,15,3,0,4,10,92,0,0,0,0,27.69,95.48028069,3.536968399,129.5300611