ID,Name,InChI,InChIKey,SMILES,Solubility,SD,Ocurrences,Group,MolWt,MolLogP,MolMR,HeavyAtomCount,NumHAcceptors,NumHDonors,NumHeteroatoms,NumRotatableBonds,NumValenceElectrons,NumAromaticRings,NumSaturatedRings,NumAliphaticRings,RingCount,TPSA,LabuteASA,BalabanJ,BertzCT
A-4264,methyl (2Z)-3-aminobut-2-enoate,"InChI=1S/C5H9NO2/c1-4(6)3-5(7)8-2/h3H,6H2,1-2H3/b4-3+",XKORCTIIRYKLLG-ONEGZZNKSA-N,COC(=O)\C=C(/C)N,-0.805923544,0,1,G1,115.132,0.0219,29.9604,8,3,1,3,1,46,0,0,0,0,52.32,48.12437448,3.701645431,113.5970774
A-4265,silanedione magnesium sodium hydrofluoride,InChI=1S/FH.Mg.Na.O2Si.2H/c;;;1-3-2;;/h1H;;;;;,DESJYLHXGYGZJG-UHFFFAOYSA-N,F.[Na].[MgH2].O=[Si]=O,-0.856665127,0,1,G1,129.401,-1.7629,23.928,6,2,0,6,0,29,0,0,0,0,34.14,74.81418319,-6.67E-09,34.52932501
A-4267,"1-N,1-N-bis(2-hydroxyethyl)benzene-1,4-bis(aminium) sulfate","InChI=1S/C10H16N2O2.H2O4S/c11-9-1-3-10(4-2-9)12(5-7-13)6-8-14;1-5(2,3)4/h1-4,13-14H,5-8,11H2;(H2,1,2,3,4)",KMCFMEHSEWDYKG-UHFFFAOYSA-N,Nc1ccc(cc1)N(CCO)CCO.O[S](O)(=O)=O,-0.218413053,0,1,G1,294.329,-0.593,71.4164,19,6,5,9,5,110,1,0,0,1,144.32,111.2170682,5.55E-07,433.5926109
A-4268,ammonium hydrogen carbonate,"InChI=1S/3CH2O3.2H3N.2Zn/c3*2-1(3)4;;;;/h3*(H2,2,3,4);2*1H3;;/q;;;;;2*+2/p-4",QOPSSYZLVIENBR-UHFFFAOYSA-J,[NH4+].[NH4+].[Zn++].[Zn++].[O-]C([O-])=O.[O-]C([O-])=O.[O-]C([O-])=O,-0.289761762,0.046001339,2,G3,346.882,-6.5936,28.1576,16,9,2,13,0,88,0,0,0,0,262.57,114.7689232,-1.35E-08,124.3037625
A-4269,disodium sulfanediide,InChI=1S/2Na.H2S/h;;1H2/q2*+1;/p-1,VDQVEACBQKUUSU-UHFFFAOYSA-M,[Na+].[Na+].[SH-],0.352490659,0,1,G1,79.055,-6.2621,8.76,3,1,0,3,0,8,0,0,0,0,0,71.38813146,0,2.754887502
A-4270,nickel(2+) ion diacetate,"InChI=1S/2C2H4O2.Ni/c2*1-2(3)4;/h2*1H3,(H,3,4);/q;;+2/p-2",AIYYMMQIMJOTBM-UHFFFAOYSA-L,[Ni++].CC([O-])=O.CC([O-])=O,0.00053768,0,1,G1,176.781,-2.4901,21.362,9,4,0,5,0,56,0,0,0,0,80.26,62.79817285,-7.20E-08,70.56842503
A-4271,"1,1,1,3,3,3-hexafluoropropan-2-ol","InChI=1S/C3H2F6O/c4-2(5,6)1(10)3(7,8)9/h1,10H",BYEAHWXPCBROCE-UHFFFAOYSA-N,OC(C(F)(F)F)C(F)(F)F,0.020110333,0,1,G1,168.036,1.4719,18.1168,10,1,1,7,0,62,0,0,0,0,20.23,51.25658143,4.231132186,97.1417863
A-4274,"trisodium trihydrogen 5,5',5''-(1,3,5-triazine-2,4,6-triyltriimino)tris[5-sulphonatosalicylate]","InChI=1S/C24H24N6O18S3.3Na/c31-13-1-4-22(49(40,41)42,7-10(13)16(34)35)28-19-25-20(29-23(50(43,44)45)5-2-14(32)11(8-23)17(36)37)27-21(26-19)30-24(51(46,47)48)6-3-15(33)12(9-24)18(38)39;;;/h1-3,7-9,31-33H,4-6H2,(H,34,35)(H,36,37)(H,38,39)(H,40,41,42)(H,43,44,45)(H,46,47,48)(H3,25,26,27,28,29,30);;;/q;3*+1/p-3",ZUWXIYHFBSJORS-UHFFFAOYSA-K,[Na+].[Na+].[Na+].OC(=O)C1=CC(CC=C1O)(Nc2nc(NC3(CC=C(O)C(=C3)C(O)=O)[S]([O-])(=O)=O)nc(NC4(CC=C(O)C(=C4)C(O)=O)[S]([O-])(=O)=O)n2)[S]([O-])(=O)=O,-0.689646011,0,1,G1,846.627,-10.5864,161.1225,54,21,9,30,12,276,1,0,3,4,418.95,369.6246821,4.86E-06,2030.959293
A-4276,calcium diformate,"InChI=1S/2CH2O2.Ca/c2*2-1-3;/h2*1H,(H,2,3);/q;;+2/p-2",CBOCVOKPQGJKKJ-UHFFFAOYSA-L,[Ca++].[O-]C=O.[O-]C=O,0.121211094,0,1,G1,130.112,-3.6486,17.882,7,4,0,5,0,36,0,0,0,0,80.26,70.137304,-4.00E-08,30.67103446
A-4277,2-(acetyloxy)ethyl acetate,"InChI=1S/C6H10O4/c1-5(7)9-3-4-10-6(2)8/h3-4H2,1-2H3",JTXMVXSTHSMVQF-UHFFFAOYSA-N,CC(=O)OCCOC(C)=O,0.068474963,0.01454904,3,G5,146.142,0.1126,33.266,10,4,0,4,3,58,0,0,0,0,52.6,59.11409626,3.05508994,113.7095059
A-4278,"disodium 1-amino-9,10-dihydro-9,10-dioxo-4-[[4-[[2-(sulphonatooxy)ethyl]sulphonyl]phenyl]amino]anthracene-2-sulphonate","InChI=1S/C22H18N2O11S3.2Na/c23-20-17(37(29,30)31)11-16(18-19(20)22(26)15-4-2-1-3-14(15)21(18)25)24-12-5-7-13(8-6-12)36(27,28)10-9-35-38(32,33)34;;/h1-8,11,24H,9-10,23H2,(H,29,30,31)(H,32,33,34);;/q;2*+1/p-2",JALBGZPFNQMHSM-UHFFFAOYSA-L,[Na+].[Na+].Nc1c2C(=O)c3ccccc3C(=O)c2c(Nc4ccc(cc4)[S](=O)(=O)CCO[S]([O-])(=O)=O)cc1[S]([O-])(=O)=O,-0.563962397,0.010371746,3,G5,626.554,-5.0496,129.5513,40,13,2,18,8,200,3,0,1,4,229.96,273.2443447,2.80E-06,1826.08718
A-4281,dioxodiarsoxane,InChI=1S/2As.3O/q2*+3;3*-2,QTLQKAJBUDWPIB-UHFFFAOYSA-N,[O--].[O--].[O--].[As+3].[As+3],-1.045896296,0,1,G1,197.841,-1.118,13.5675,5,0,0,5,0,28,0,0,0,0,85.5,52.68317048,0,4.854752972
A-4282,disodium 2-[(E)-2-(4-{4-[(E)-2-(2-sulfonatophenyl)ethenyl]phenyl}phenyl)ethenyl]benzene-1-sulfonate,"InChI=1S/C28H22O6S2.2Na/c29-35(30,31)27-7-3-1-5-25(27)19-13-21-9-15-23(16-10-21)24-17-11-22(12-18-24)14-20-26-6-2-4-8-28(26)36(32,33)34;;/h1-20H,(H,29,30,31)(H,32,33,34);;/q;2*+1/p-2/b19-13-,20-14-;;",PMPJQLCPEQFEJW-GNTLFSRWSA-L,[Na+].[Na+].[O-][S](=O)(=O)c1ccccc1\C=C/c2ccc(cc2)c3ccc(cc3)\C=C/c4ccccc4[S]([O-])(=O)=O,-1.504668533,0,1,G1,562.576,-0.4894,138.5444,38,6,0,10,7,182,4,0,0,4,114.4,266.7673194,2.53E-06,1534.451731
A-4283,"1,1,1,3,3,3-hexachloroacetone","InChI=1S/C3Cl6O/c4-2(5,6)1(10)3(7,8)9",DOJXGHGHTWFZHK-UHFFFAOYSA-N,ClC(Cl)(Cl)C(=O)C(Cl)(Cl)Cl,-1.17979792,0,1,G1,264.75,3.2959,45.587,10,1,0,7,0,60,0,0,0,0,17.07,87.45025472,4.39899054,124.0523685
A-4285,dibutoxyphosphinic acid,"InChI=1S/C8H19O4P/c1-3-5-7-11-13(9,10)12-8-6-4-2/h3-8H2,1-2H3,(H,9,10)",JYFHYPJRHGVZDY-UHFFFAOYSA-N,CCCCO[P](O)(=O)OCCCC,-1.087251192,0.009935162,2,G3,210.21,2.7202,51.5453,13,3,1,5,8,80,0,0,0,0,55.76,79.86478071,3.48510769,146.2230164
A-4286,methoxyethene,"InChI=1S/C3H6O/c1-3-4-2/h3H,1H2,2H3",XJRBAMWJDBPFIM-UHFFFAOYSA-N,COC=C,-0.531030497,0.028452426,2,G3,58.08,0.7763,17.206,4,1,0,1,1,24,0,0,0,0,9.23,25.89307745,2.296835262,17.2451125
A-4287,2-ethoxyethyl 2-methylprop-2-enoate,"InChI=1S/C8H14O3/c1-4-10-5-6-11-8(9)7(2)3/h2,4-6H2,1,3H3",SFPNZPQIIAJXGL-UHFFFAOYSA-N,CCOCCOC(=O)C(C)=C,-0.96747386,0,1,G1,158.197,1.1422,42.266,11,3,0,3,5,64,0,0,0,0,35.53,66.99285536,3.248575931,140.2725969
A-4291,ethyl 2-chloro-3-oxobutanoate,"InChI=1S/C6H9ClO3/c1-3-10-6(9)5(7)4(2)8/h5H,3H2,1-2H3",RDULEYWUGKOCMR-UHFFFAOYSA-N,CCOC(=O)C(Cl)C(C)=O,-0.985949247,0.036711671,3,G5,164.588,0.7459,36.955,10,3,0,4,3,58,0,0,0,0,43.37,64.30381726,3.823192526,143.928355
A-4293,"trisodium 4-{[4-({3-[(4-amino-6-chloro-1,3,5-triazin-2-yl)amino]-4-sulfonatophenyl}amino)-6-chloro-1,3,5-triazin-2-yl]amino}-6-[(E)-2-(5-carbamoyl-1-ethyl-2-hydroxy-4-methyl-6-oxo-1,6-dihydropyridin-3-yl)diazen-1-yl]benzene-1,3-disulfonate","InChI=1S/C27H24Cl2N14O12S3.3Na/c1-3-43-20(45)17(19(30)44)9(2)18(21(43)46)42-41-13-7-12(15(57(50,51)52)8-16(13)58(53,54)55)34-27-38-23(29)37-25(40-27)32-10-4-5-14(56(47,48)49)11(6-10)33-26-36-22(28)35-24(31)39-26;;;/h4-8,41H,3H2,1-2H3,(H2,30,44)(H,47,48,49)(H,50,51,52)(H,53,54,55)(H3,31,33,35,36,39)(H2,32,34,37,38,40);;;/q;3*+1/p-3/b42-18-;;;",FGZWHMWBAASFOQ-YMOXRGJDSA-K,[Na+].[Na+].[Na+].CCN1C(=O)C(=N/Nc2cc(Nc3nc(Cl)nc(Nc4ccc(c(Nc5nc(N)nc(Cl)n5)c4)[S]([O-])(=O)=O)n3)c(cc2[S]([O-])(=O)=O)[S]([O-])(=O)=O)\C(=C(C(N)=O)C1=O)C,-0.759001213,0,1,G1,969.628,-9.1409,196.0542,61,24,6,34,13,306,4,0,1,5,415.91,420.2313464,4.27E-06,2840.682171
A-4296,1-(diethylamino)propan-2-ol,"InChI=1S/C7H17NO/c1-4-8(5-2)6-7(3)9/h7,9H,4-6H2,1-3H3",BHUXAQIVYLDUQV-UHFFFAOYSA-N,CCN(CC)CC(C)O,0.102111364,0,1,G1,131.219,0.709,39.4688,9,2,1,2,4,56,0,0,0,0,23.47,57.48297114,3.307394084,59.93649058
A-4301,ethanethioamide,"InChI=1S/C2H5NS/c1-2(3)4/h1H3,(H2,3,4)",YUKQRDCYNOVPGJ-UHFFFAOYSA-N,CC(N)=S,0.336339534,0,1,G1,75.136,0.2924,22.4594,4,1,1,2,0,24,0,0,0,0,26.02,30.80286409,2.803039488,29.01955001
A-4303,1-methoxypropan-2-yl acetate,"InChI=1S/C6H12O3/c1-5(4-8-3)9-6(2)7/h5H,4H2,1-3H3",LLHKCFNBLRBOGN-UHFFFAOYSA-N,COCC(C)OC(C)=O,0.083023239,0.123935385,3,G5,132.159,0.5844,33.104,9,3,0,3,3,54,0,0,0,0,35.53,54.95257416,3.259231489,90.30376252
A-4304,ammonium sodium 2-[4-[[1-[[(2-methoxy-5-methyl-4-sulphonatophenyl)amino]carbonyl]-2-oxopropyl]azo]phenyl]-6-methylbenzothiazole-7-sulphonate,"InChI=1S/C26H24N4O9S3.H3N.Na/c1-13-5-10-18-23(24(13)42(36,37)38)40-26(28-18)16-6-8-17(9-7-16)29-30-22(15(3)31)25(32)27-19-11-14(2)21(41(33,34)35)12-20(19)39-4;;/h5-12,22H,1-4H3,(H,27,32)(H,33,34,35)(H,36,37,38);1H3;/q;;+1/p-1",BPSOMXDZJFRMBW-UHFFFAOYSA-M,[NH4+].[Na+].COc1cc(c(C)cc1NC(=O)C(N=Nc2ccc(cc2)c3sc4c(ccc(C)c4[S]([O-])(=O)=O)n3)C(C)=O)[S]([O-])(=O)=O,-0.623062478,0,1,G1,671.711,1.45714,157.0499,44,13,2,18,9,228,4,0,0,4,243.91,278.8815136,3.37E-06,1978.259784
A-4305,"5,8,11,13,16,19-hexaoxatricosane","InChI=1S/C17H36O6/c1-3-5-7-18-9-11-20-13-15-22-17-23-16-14-21-12-10-19-8-6-4-2/h3-17H2,1-2H3",DKWHHTWSTXZKDW-UHFFFAOYSA-N,CCCCOCCOCCOCOCCOCCOCCCC,-1.301635776,0,1,G1,336.469,2.6437,89.863,23,6,0,6,20,140,0,0,0,0,55.38,141.2595962,2.921962194,183.5226134
A-4306,"3,6-dimethyl-1,4-dioxane-2,5-dione","InChI=1S/C6H8O4/c1-3-5(7)10-4(2)6(8)9-3/h3-4H,1-2H3",JJTUDXZGHPGLLC-UHFFFAOYSA-N,CC1OC(=O)C(C)OC1=O,-0.936025863,0,1,G1,144.126,-0.1366,31.108,10,4,0,4,0,56,0,1,1,1,52.6,58.10826511,2.631435738,154.5866297
A-4307,bromo(chloro)methane,InChI=1S/CH2BrCl/c2-1-3/h1H2,JPOXNPPZZKNXOV-UHFFFAOYSA-N,ClCBr,-0.889164102,1.5,2,G2,129.384,1.5776,19.647,3,0,0,2,0,20,0,0,0,0,0,32.91006486,1.632993162,4.754887502
A-4308,2-aminobenzamide,"InChI=1S/C7H8N2O/c8-6-4-2-1-3-5(6)7(9)10/h1-4H,8H2,(H2,9,10)",PXBFMLJZNCDSMP-UHFFFAOYSA-N,NC(=O)c1ccccc1N,-0.913922317,0,1,G1,136.154,0.3677,39.3723,10,2,2,3,1,52,1,0,0,1,69.11,58.63764873,3.152941447,257.5379489
A-4312,(3Z)-hex-3-en-1-ol,"InChI=1S/C6H12O/c1-2-3-4-5-6-7/h3-4,7H,2,5-6H2,1H3/b4-3-",UFLHIIWVXFIJGU-ARJAWSKDSA-N,CC\C=C/CCO,-0.785854804,0.03535673,2,G3,100.161,1.335,31.1338,7,1,1,1,3,42,0,0,0,0,20.23,44.66859232,2.77714929,48.14170945
A-4316,"2-methoxy-3,4-dihydro-2H-pyran","InChI=1S/C6H10O2/c1-7-6-4-2-3-5-8-6/h3,5-6H,2,4H2,1H3",XCYWUZHUTJDTGS-UHFFFAOYSA-N,COC1CCC=CO1,-0.853333105,0,1,G1,114.144,1.283,30.256,8,2,0,2,1,46,0,0,1,1,18.46,49.09561787,2.268471475,88.52932501
A-4318,"4,5-bis(hydroxymethyl)-2-methylpyridin-3-ol hydrochloride","InChI=1S/C8H11NO3.ClH/c1-5-8(12)7(4-11)6(3-10)2-9-5;/h2,10-12H,3-4H2,1H3;1H",ZUFQODAHGAHPFQ-UHFFFAOYSA-N,[H+].[Cl-].Cc1ncc(CO)c(CO)c1O,-0.111712583,0.070506291,2,G3,205.641,-2.80328,43.5964,13,4,3,5,2,74,1,0,0,1,73.58,83.76647032,0,296.1600352
A-4321,tetrasodium tris(peroxol) dicarbonate,"InChI=1S/2CH2O3.4Na.3H2O2/c2*2-1(3)4;;;;;3*1-2/h2*(H2,2,3,4);;;;;3*1-2H/q;;4*+1;;;/p-4",MSLRPWGRFCKNIZ-UHFFFAOYSA-J,[Na+].[Na+].[Na+].[Na+].OO.OO.OO.[O-]C([O-])=O.[O-]C([O-])=O,-0.309433822,0.030273456,3,G5,314.018,-16.8258,26.5648,18,12,6,16,0,90,0,0,0,0,247.76,188.8343839,-7.92E-09,80.07820003
A-4322,"Nonylphenol, ethoxylated","InChI=1S/C19H32O3/c1-2-3-4-5-6-7-8-9-18-10-12-19(13-11-18)22-17-16-21-15-14-20/h10-13,20H,2-9,14-17H2,1H3",BLXVTZPGEOGTGG-UHFFFAOYSA-N,CCCCCCCCCc1ccc(OCCOCCO)cc1,-0.304510239,0,1,G1,308.462,4.3674,91.5388,22,3,1,3,14,126,1,0,0,1,38.69,135.1969748,2.058820608,348.2028578
A-4323,amino(imino)methanaminium; cyanosulfanide,"InChI=1S/CH5N3.CHNS/c2-1(3)4;2-1-3/h(H5,2,3,4);3H",ZJYYHGLJYGJLLN-UHFFFAOYSA-N,NC(N)=N.SC#N,1.106488088,0.203483255,4,G5,118.165,-0.76415,30.7005,7,3,4,5,0,40,0,0,0,0,99.68,47.02280303,0,78.18080947
A-4324,sodium dodecyl sulfate,"InChI=1S/C12H26O4S.Na/c1-2-3-4-5-6-7-8-9-10-11-12-16-17(13,14)15;/h2-12H2,1H3,(H,13,14,15);/q;+1/p-1",DBMJMQXJHONAFJ-UHFFFAOYSA-M,[Na+].CCCCCCCCCCCCO[S]([O-])(=O)=O,-0.283881408,0.15711494,5,G5,288.385,0.3881,67.4932,18,4,0,6,12,104,0,0,0,0,66.43,134.118199,0,254.8030251
A-4325,"3-methyl-2-(2-oxo-1,3-diazinan-1-yl)butanoic acid","InChI=1S/C9H16N2O3/c1-6(2)7(8(12)13)11-5-3-4-10-9(11)14/h6-7H,3-5H2,1-2H3,(H,10,14)(H,12,13)",AFGBRTKUTJQHIP-UHFFFAOYSA-N,CC(C)C(N1CCCNC1=O)C(O)=O,-1.102861926,0.008613258,3,G5,200.238,0.5109,50.9835,14,2,2,5,3,80,0,1,1,1,69.64,83.0799306,2.753993524,240.2115659
A-4326,1-cyanoprop-2-en-1-yl acetate,"InChI=1S/C6H7NO2/c1-3-6(4-7)9-5(2)8/h3,6H,1H2,2H3",MEHLEOUIWVWVBF-UHFFFAOYSA-N,CC(=O)OC(C=C)C#N,-0.898693945,0,1,G1,125.127,0.62768,31.364,9,3,0,3,2,48,0,0,0,0,50.09,53.54200558,3.73097891,156.9310205
A-4329,2-methylcyclohexanol,"InChI=1S/C7H14O/c1-6-4-2-3-5-7(6)8/h6-8H,2-5H2,1H3",NDVWOBYBJYUSMF-UHFFFAOYSA-N,CC1CCCCC1O,-0.864495868,0,1,G1,114.188,1.5574,33.6388,8,1,1,1,0,48,0,1,1,1,20.23,50.71730631,2.279400271,60.78707744
A-4334,1-phenoxypropan-2-ol,"InChI=1S/C9H12O2/c1-8(10)7-11-9-5-3-2-4-6-9/h2-6,8,10H,7H2,1H3",IBLKWZIFZMJLFL-UHFFFAOYSA-N,CC(O)COc1ccccc1,-1.003417731,0.068791135,2,G3,152.193,1.4462,43.6178,11,2,1,2,3,60,1,0,0,1,29.46,66.43400844,2.392291166,193.9775235
A-4335,2-(1-methylcarbamimidamido)acetic acid,"InChI=1S/C4H9N3O2/c1-7(4(5)6)2-3(8)9/h2H2,1H3,(H3,5,6)(H,8,9)",CVSVTCORWBXHQV-UHFFFAOYSA-N,CN(CC(O)=O)C(N)=N,-0.938741673,0.00984007,2,G3,131.135,-1.10373,32.1799,9,2,3,5,2,52,0,0,0,0,90.41,52.57490859,3.632432152,133.7744375
A-4336,2-methylaniline,"InChI=1S/C7H9N/c1-6-4-2-3-5-7(6)8/h2-5H,8H2,1H3",RNVCVTLRINQCPJ-UHFFFAOYSA-N,Cc1ccccc1N,-0.853925235,0.59859566,4,G4,107.156,1.57722,35.5914,8,1,1,1,0,42,1,0,0,1,26.02,49.13623593,3.134861511,160.4966295
A-4337,3-[(2-ethylhexyl)oxy]propan-1-amine,"InChI=1S/C11H25NO/c1-3-5-7-11(4-2)10-13-9-6-8-12/h11H,3-10,12H2,1-2H3",DVFGEIYOLIFSRX-UHFFFAOYSA-N,CCCCC(CC)COCCCN,-1.096509119,0,1,G1,187.327,2.5682,57.7964,13,2,1,2,9,80,0,0,0,0,35.25,82.8421081,3.253702897,96.09106855
A-4339,3-methylbutanal,"InChI=1S/C5H10O/c1-5(2)3-4-6/h4-5H,3H2,1-2H3",YGHRJJRRZDOVPD-UHFFFAOYSA-N,CC(C)CC=O,-0.759083357,0.055753489,3,G5,86.134,1.2314,25.519,6,1,0,1,2,36,0,0,0,0,17.07,38.36054159,2.814144222,39.20310344
A-4342,L-histidine monohydrochloride,"InChI=1S/C6H9N3O2.ClH/c7-5(6(10)11)1-4-2-8-3-9-4;/h2-3,5H,1,7H2,(H,8,9)(H,10,11);1H/t5-;/m0./s1",QZNNVYOVQUKYSC-JEDNCBNOSA-N,[Cl-].N[C@@H](Cc1[nH]cnc1)C(O)=O.[H+],-0.107649886,0,1,G1,191.618,-3.5194,39.0149,12,3,3,6,3,68,1,0,0,1,92,76.88857604,0,242.03722
A-4344,pentasodium bis(phosphonatooxy)phosphinate,"InChI=1S/5Na.H5O10P3/c;;;;;1-11(2,3)9-13(7,8)10-12(4,5)6/h;;;;;(H,7,8)(H2,1,2,3)(H2,4,5,6)/q5*+1;/p-5",HWGNBUXHKFFFIH-UHFFFAOYSA-I,[Na+].[Na+].[Na+].[Na+].[Na+].[O-][P]([O-])(=O)O[P]([O-])(=O)O[P]([O-])([O-])=O,-0.395423212,0,1,G1,367.862,-18.8346,24.9895,18,10,0,18,4,80,0,0,0,0,184.97,213.2883983,-7.20E-08,287.4748411
A-4348,"sodium (2R)-2-[(1R)-1,2-dihydroxyethyl]-4-hydroxy-5-oxo-2,5-dihydrofuran-3-olate","InChI=1S/C6H7O6.Na/c7-1-2(8)5-3(9)4(10)6(11)12-5;/h2,5,8,10-11H,1H2;/q-1;+1/t2-,5-;/m1./s1",QNSCGSPRKIPKTN-RKJRWTFHSA-N,[Na+].O[C@H](C[O-])[C@H]1OC(=C(O)C1=O)O,-0.132544773,0,1,G1,198.106,-5.0354,33.0374,13,6,3,7,2,68,0,0,1,1,110.05,95.73392938,1.44E-06,237.2789758
A-4349,2-methoxyethyl prop-2-enoate,"InChI=1S/C6H10O3/c1-3-6(7)9-5-4-8-2/h3H,1,4-5H2,2H3",HFCUBKYHMMPGBY-UHFFFAOYSA-N,COCCOC(=O)C=C,0.043941678,0,1,G1,130.143,0.362,33.032,9,3,0,3,4,52,0,0,0,0,35.53,54.26297113,3.065503379,98.47609518
A-4350,[(4-sulfamoylphenyl)amino]azanium chloride,"InChI=1S/C6H9N3O2S.ClH/c7-9-5-1-3-6(4-2-5)12(8,10)11;/h1-4,9H,7H2,(H2,8,10,11);1H",IKEURONJLPUALY-UHFFFAOYSA-N,[H+].[Cl-].NNc1ccc(cc1)[S](N)(=O)=O,-0.19127437,0,1,G1,223.685,-3.2639,46.7373,13,4,3,7,2,74,1,0,0,1,98.21,84.02985023,0,367.1679361
A-4351,"1,1-dimethylurea","InChI=1S/C3H8N2O/c1-5(2)3(4)6/h1-2H3,(H2,4,6)",YBBLOADPFWKNGS-UHFFFAOYSA-N,CN(C)C(N)=O,0.212431567,0,1,G1,88.11,-0.3733,23.2704,6,1,1,3,0,36,0,0,0,0,46.33,36.73038172,3.257586161,59.81353753
A-4352,potassium dicyanogolduide,InChI=1S/2CN.Au.K/c2*1-2;;/q2*-1;2*+1,XTFKWYDMKGAZKK-UHFFFAOYSA-N,[K+].[Au+].[C-]#N.[C-]#N,-0.304208728,0,1,G1,288.101,-2.80576,9.936,6,2,0,4,0,30,0,0,0,0,47.58,95.45115121,-5.00E-09,27.01955001
A-4353,decasodium 2-[(E)-2-{2-sulfonato-4-[(E)-2-{3-sulfonato-4-[(E)-2-{2-sulfonato-4-[(E)-2-{4-[(E)-2-(4-sulfonatophenyl)diazen-1-yl]phenyl}diazen-1-yl]phenyl}ethenyl]phenyl}diazen-1-yl]phenyl}ethenyl]-5-[(E)-2-{4-[(E)-2-(4-sulfonatophenyl)diazen-1-yl]phenyl}diazen-1-yl]benzene-1-sulfonate 2-[(E)-2-{2-sulfonato-4-[(E)-2-{4-[(E)-2-(4-sulfonatophenyl)diazen-1-yl]phenyl}diazen-1-yl]phenyl}ethenyl]-5-[(E)-2-{4-[(E)-2-(4-sulfonatophenyl)diazen-1-yl]phenyl}diazen-1-yl]benzene-1-sulfonate,"InChI=1S/C52H38N10O18S6.C38H28N8O12S4.10Na/c63-81(64,65)47-25-21-41(22-26-47)55-53-37-13-17-39(18-14-37)57-59-43-9-5-33(49(29-43)83(69,70)71)1-3-35-7-11-45(31-51(35)85(75,76)77)61-62-46-12-8-36(52(32-46)86(78,79)80)4-2-34-6-10-44(30-50(34)84(72,73)74)60-58-40-19-15-38(16-20-40)54-56-42-23-27-48(28-24-42)82(66,67)68;47-59(48,49)35-19-15-31(16-20-35)41-39-27-7-11-29(12-8-27)43-45-33-5-3-25(37(23-33)61(53,54)55)1-2-26-4-6-34(24-38(26)62(56,57)58)46-44-30-13-9-28(10-14-30)40-42-32-17-21-36(22-18-32)60(50,51)52;;;;;;;;;;/h1-32H,(H,63,64,65)(H,66,67,68)(H,69,70,71)(H,72,73,74)(H,75,76,77)(H,78,79,80);1-24H,(H,47,48,49)(H,50,51,52)(H,53,54,55)(H,56,57,58);;;;;;;;;;/q;;10*+1/p-10/b3-1+,4-2+,55-53?,56-54?,59-57?,60-58?,62-61?;2-1+,41-39?,42-40?,45-43?,46-44?;;;;;;;;;;",MVVIVTYJFSLIBC-QISMBRTESA-D,[Na+].[Na+].[Na+].[Na+].[Na+].[Na+].[Na+].[Na+].[Na+].[Na+].[O-][S](=O)(=O)c1ccc(cc1)N=Nc2ccc(cc2)N=Nc3ccc(\C=C\c4ccc(cc4[S]([O-])(=O)=O)N=Nc5ccc(cc5)N=Nc6ccc(cc6)[S]([O-])(=O)=O)c(c3)[S]([O-])(=O)=O.[O-][S](=O)(=O)c7ccc(cc7)N=Nc8ccc(cc8)N=Nc9ccc(/C=C/c%10ccc(cc%10[S]([O-])(=O)=O)N=Nc%11ccc(\C=C\c%12ccc(cc%12[S]([O-])(=O)=O)N=Nc%13ccc(cc%13)N=Nc%14ccc(cc%14)[S]([O-])(=O)=O)c(c%11)[S]([O-])(=O)=O)c(c9)[S]([O-])(=O)=O,-1.231545685,0,1,G1,2420.104,-9.296,514.188,158,48,0,68,34,756,14,0,0,14,794.48,1124.741659,7.96E-07,8713.637497
A-4356,2-hydroxy-2-phenylacetic acid,"InChI=1S/C8H8O3/c9-7(8(10)11)6-4-2-1-3-5-6/h1-5,7,9H,(H,10,11)",IWYDHOAUDWTVEP-UHFFFAOYSA-N,OC(C(O)=O)c1ccccc1,-0.032126941,0.077872061,5,G5,152.149,0.8046,39.0376,11,2,2,3,2,58,1,0,0,1,57.53,63.91127695,2.85117789,242.7739002
A-4359,"5,5-dimethylimidazolidine-2,4-dione","InChI=1S/C5H8N2O2/c1-5(2)3(8)6-4(9)7-5/h1-2H3,(H2,6,7,8,9)",YIROYDNZEPTFOL-UHFFFAOYSA-N,CC1(C)NC(=O)NC1=O,0.03847382,0,1,G1,128.131,-0.3956,30.7534,9,2,2,4,0,50,0,1,1,1,58.2,52.6159569,2.813681674,173.7968083
A-4361,"tetrasodium 5-({4-[(2-hydroxyethyl)amino]-6-[(3-sulfonatophenyl)amino]-1,3,5-triazin-2-yl}amino)-2-[(E)-2-[4-({4-[(2-hydroxyethyl)amino]-6-[(3-sulfonatophenyl)amino]-1,3,5-triazin-2-yl}amino)-2-sulfonatophenyl]ethenyl]benzene-1-sulfonate","InChI=1S/C36H36N12O14S4.4Na/c49-15-13-37-31-43-33(39-23-3-1-5-27(17-23)63(51,52)53)47-35(45-31)41-25-11-9-21(29(19-25)65(57,58)59)7-8-22-10-12-26(20-30(22)66(60,61)62)42-36-46-32(38-14-16-50)44-34(48-36)40-24-4-2-6-28(18-24)64(54,55)56;;;;/h1-12,17-20,49-50H,13-16H2,(H,51,52,53)(H,54,55,56)(H,57,58,59)(H,60,61,62)(H3,37,39,41,43,45,47)(H3,38,40,42,44,46,48);;;;/q;4*+1/b8-7+;;;;",HECFMGCMMKUMIN-YZNHWISSSA-N,[Na+].[Na+].[Na+].[Na+].OCCNc1nc(Nc2cccc(c2)[S](O)(=O)=O)nc(Nc3ccc(\C=C\c4ccc(Nc5nc(NCCO)nc(Nc6cccc(c6)[S](O)(=O)=O)n5)cc4[S](O)(=O)=O)c(c3)[S](O)(=O)=O)n1,-0.887690427,0,1,G1,1080.982,-8.9874,237.8902,70,22,12,34,20,348,6,0,0,6,407.46,488.5905948,4.20E-06,3080.090015
A-4364,phenylphosphonic acid,"InChI=1S/C6H7O3P/c7-10(8,9)6-4-2-1-3-5-6/h1-5H,(H2,7,8,9)",QLZHNIAADXEJJP-UHFFFAOYSA-N,O[P](O)(=O)c1ccccc1,-1.026923058,0.597848971,5,G4,158.093,0.4896,38.1201,10,1,2,4,1,54,1,0,0,1,57.53,58.48281104,3.087636787,250.9552557
A-4367,"disodium 2-[(E)-2-[3-methyl-5-oxo-1-(4-sulfonatophenyl)-4,5-dihydro-1H-pyrazol-4-yl]diazen-1-yl]benzoate","InChI=1S/C17H14N4O6S.2Na/c1-10-15(19-18-14-5-3-2-4-13(14)17(23)24)16(22)21(20-10)11-6-8-12(9-7-11)28(25,26)27;;/h2-9,15H,1H3,(H,23,24)(H,25,26,27);;/q;2*+1/p-2",RTBLVNSNIFUUFC-UHFFFAOYSA-L,[Na+].[Na+].CC1=NN(C(=O)C1N=Nc2ccccc2C([O-])=O)c3ccc(cc3)[S]([O-])(=O)=O,-1.491314993,0,1,G1,446.352,-5.1628,94.0767,30,9,0,13,5,144,2,0,1,3,154.72,215.95216,2.25E-06,1119.323242
A-4371,"sodium 4-[(dichloro-1,3,5-triazin-2-yl)amino]benzene-1-sulfonate","InChI=1S/C9H6Cl2N4O3S.Na/c10-7-13-8(11)15-9(14-7)12-5-1-3-6(4-2-5)19(16,17)18;/h1-4H,(H,16,17,18)(H,12,13,14,15);/q;+1/p-1",BAINTIMFWTXLNC-UHFFFAOYSA-M,[Na+].[O-][S](=O)(=O)c1ccc(Nc2nc(Cl)nc(Cl)n2)cc1,-1.38103092,0,1,G1,343.127,-1.1699,67.5349,20,7,1,11,3,100,2,0,0,2,107.9,146.3458715,2.00E-06,691.3826412
A-4372,formaldehyde; 2-(2-hydroxyethylamino)ethanol; 2-methyloxirane; 2-nonylphenol,"InChI=1S/C15H24O.C4H11NO2.C3H6O.CH2O/c1-2-3-4-5-6-7-8-11-14-12-9-10-13-15(14)16;6-3-1-5-2-4-7;1-3-2-4-3;1-2/h9-10,12-13,16H,2-8,11H2,1H3;5-7H,1-4H2;3H,2H2,1H3;1H2",RUMPVAYNMPZNCZ-UHFFFAOYSA-N,CCCCCCCCCc1ccccc1O.CC2CO2.OCCNCCO.C=O,-1.463069491,0,1,G1,413.599,3.4661,119.3801,29,6,4,6,12,170,1,1,1,2,102.32,176.8547121,0,437.0312998