ID,Name,InChI,InChIKey,SMILES,Solubility,SD,Ocurrences,Group,MolWt,MolLogP,MolMR,HeavyAtomCount,NumHAcceptors,NumHDonors,NumHeteroatoms,NumRotatableBonds,NumValenceElectrons,NumAromaticRings,NumSaturatedRings,NumAliphaticRings,RingCount,TPSA,LabuteASA,BalabanJ,BertzCT
A-3944,"trisodium 8-{[(2E)-4-chloro-6-[ethyl(phenyl)amino]-1,2-dihydro-1,3,5-triazin-2-ylidene]amino}-2-[(E)-2-(1-sulfonaphthalen-2-yl)diazen-1-yl]-3,6-disulfonatonaphthalen-1-olate","InChI=1S/C31H24ClN7O10S3.3Na/c1-2-39(19-9-4-3-5-10-19)31-35-29(32)34-30(36-31)33-23-16-20(50(41,42)43)14-18-15-24(51(44,45)46)26(27(40)25(18)23)38-37-22-13-12-17-8-6-7-11-21(17)28(22)52(47,48)49;;;/h3-16,37H,2H2,1H3,(H,41,42,43)(H,44,45,46)(H,47,48,49)(H,33,34,35,36);;;/q;3*+1/p-3/b38-26+;;;",YTFISNAZHFSCHA-AWMFZBAVSA-K,[Na+].[Na+].[Na+].CCN(c1ccccc1)c2nc(Cl)nc(Nc3cc(cc4C=C(\C(=N/Nc5ccc6ccccc6c5[S]([O-])(=O)=O)C(=O)c34)[S]([O-])(=O)=O)[S]([O-])(=O)=O)n2,-0.459235549,0,1,G1,852.172,-5.0495,186.6205,55,17,2,24,10,268,5,0,1,6,267,385.7534245,2.71E-06,2709.690951
A-3949,"sodium 3-[2-(1,5-dioxonaphthalen-2-yl)hydrazinyl]-4-hydroxybenzenesulfonate","InChI=1S/C16H12N2O6S.Na/c19-14-3-1-2-11-10(14)5-6-12(16(11)21)17-18-13-8-9(25(22,23)24)4-7-15(13)20;/h1-8,17-18,20H,(H,22,23,24);/q;+1/p-1",GJJYQFJLFUEXMR-UHFFFAOYSA-M,[Na+].Oc1ccc(cc1NNC2=CC=C3C(=O)C=CC=C3C2=O)[S]([O-])(=O)=O,-0.901196004,0,1,G1,382.329,-2.3249,86.2314,26,8,3,10,4,128,1,0,2,3,135.63,170.5399238,2.43E-06,1021.175608
A-3950,"N,N-bis(carboxymethyl)-L-glutamic acid","InChI=1S/C9H13NO8/c11-6(12)2-1-5(9(17)18)10(3-7(13)14)4-8(15)16/h5H,1-4H2,(H,11,12)(H,13,14)(H,15,16)(H,17,18)",VCVKIIDXVWEWSZ-UHFFFAOYSA-N,OC(=O)CCC(N(CC(O)=O)CC(O)=O)C(O)=O,0.043603804,0.079160517,2,G3,263.202,-1.2244,55.1382,18,5,4,9,9,102,0,0,0,0,152.44,101.241645,4.828573743,336.4767982
A-3954,isopropenyl acetate,"InChI=1S/C5H8O2/c1-4(2)7-5(3)6/h1H2,2-3H3",HETCEOQFVDFGSY-UHFFFAOYSA-N,CC(=C)OC(C)=O,-0.527751378,0,1,G1,100.117,1.0831,26.58,7,2,0,2,1,40,0,0,0,0,26.3,42.78448378,3.31801959,82.25327665
A-3955,"1,2,3,6-tetrahydrophthalic anhydride","InChI=1S/C8H8O3/c9-7-5-3-1-2-4-6(5)8(10)11-7/h1-2,5-6H,3-4H2",KMOUUZVZFBCRAM-UHFFFAOYSA-N,O=C1OC(=O)C2CC=CCC12,-0.713921772,0,1,G1,152.149,0.6522,36.453,11,3,0,3,0,58,0,1,2,2,43.37,64.02916992,2.275089056,217.7217256
A-3956,"3,5-dimethyl-1H-pyrazole","InChI=1S/C5H8N2/c1-4-3-5(2)7-6-4/h3H,1-2H3,(H,6,7)",SDXAWLJRERMRKF-UHFFFAOYSA-N,Cc1[nH]nc(C)c1,-0.520474498,0,1,G1,96.133,1.02654,28.0617,7,1,1,2,0,38,1,0,0,1,28.68,42.55854932,3.042002767,138.368693
A-3961,dipotassium 2-dodecanamidoacetate 2-tetradecanamidoacetate,"InChI=1S/C16H31NO3.C14H27NO3.2K/c1-2-3-4-5-6-7-8-9-10-11-12-13-15(18)17-14-16(19)20;1-2-3-4-5-6-7-8-9-10-11-13(16)15-12-14(17)18;;/h2-14H2,1H3,(H,17,18)(H,19,20);2-12H2,1H3,(H,15,16)(H,17,18);;/q;;2*+1/p-2",AFUMULMCCJZCMZ-UHFFFAOYSA-L,[K+].[K+].CCCCCCCCCCCCCC(=O)NCC([O-])=O.CCCCCCCCCCCC(=O)NCC([O-])=O,-0.3429717,0,1,G1,618.982,-1.665,148.9554,40,6,2,10,26,224,0,0,0,0,138.46,329.5078132,-3.10E-07,594.5462499
A-3964,"(8R,9S,10R,14S)-13-ethyl-1,2,6,7,8,9,10,11,12,14,15,16-dodecahydrocyclopenta[a]phenanthrene-3,17-dione","InChI=1S/C19H26O2/c1-2-19-10-9-15-14-6-4-13(20)11-12(14)3-5-16(15)17(19)7-8-18(19)21/h11,14-17H,2-10H2,1H3/t14-,15+,16+,17-,19?/m0/s1",SBLHOJQRZNGHLQ-YLVOMZDISA-N,CCC12CC[C@H]3[C@@H](CCC4=CC(=O)CC[C@H]34)[C@@H]1CCC2=O,-3.732719889,0,1,G1,286.415,4.0874,81.717,21,2,0,2,1,114,0,3,4,4,34.14,126.9183256,1.650127853,517.6593952
A-3965,2-amino-3-(phosphonooxy)propanoic acid,"InChI=1S/C3H8NO6P/c4-2(3(5)6)1-10-11(7,8)9/h2H,1,4H2,(H,5,6)(H2,7,8,9)/t2-/m0/s1",BZQFBWGGLXLEPQ-REOHCLBHSA-N,N[C@@H](CO[P](O)(O)=O)C(O)=O,-0.814940872,0,1,G1,185.072,-1.4924,33.6073,11,4,4,8,4,66,0,0,0,0,130.08,62.01640521,3.720984564,186.2664171
A-3967,"Benzenesulfonic acid, mono-C11-13-branched alkyl derivs., sodium salts","InChI=1S/C18H30O3S.Na/c1-3-5-9-16(4-2)10-7-6-8-11-17-12-14-18(15-13-17)22(19,20)21;/h12-16H,3-11H2,1-2H3,(H,19,20,21);/q;+1/p-1",HLZPFMSGWIVXAK-UHFFFAOYSA-M,[Na+].CCCCC(CC)CCCCCc1ccc(cc1)[S]([O-])(=O)=O,-0.096905651,0,1,G1,348.484,1.914,89.8832,23,3,0,5,11,126,1,0,0,1,57.2,163.8527441,4.84E-06,511.5731649
A-3968,"hexasodium 2-({4-[bis(2-hydroxyethyl)amino]-6-({4-[(E)-2-[4-({4-[bis(2-hydroxyethyl)amino]-6-[(2,5-disulfonatophenyl)amino]-1,3,5-triazin-2-yl}amino)-2-sulfonatophenyl]ethenyl]-3-sulfonatophenyl}amino)-1,3,5-triazin-2-yl}amino)benzene-1,4-disulfonate","InChI=1S/C40H44N12O22S6.6Na/c53-15-11-51(12-16-54)39-47-35(45-37(49-39)43-29-21-27(75(57,58)59)7-9-31(29)77(63,64)65)41-25-5-3-23(33(19-25)79(69,70)71)1-2-24-4-6-26(20-34(24)80(72,73)74)42-36-46-38(50-40(48-36)52(13-17-55)14-18-56)44-30-22-28(76(60,61)62)8-10-32(30)78(66,67)68;;;;;;/h1-10,19-22,53-56H,11-18H2,(H,57,58,59)(H,60,61,62)(H,63,64,65)(H,66,67,68)(H,69,70,71)(H,72,73,74)(H2,41,43,45,47,49)(H2,42,44,46,48,50);;;;;;/q;6*+1/p-6/b2-1+;;;;;;",ZECOZQHKQDLCBT-IRTUOLCXSA-H,[Na+].[Na+].[Na+].[Na+].[Na+].[Na+].OCCN(CCO)c1nc(Nc2ccc(\C=C\c3ccc(Nc4nc(Nc5cc(ccc5[S]([O-])(=O)=O)[S]([O-])(=O)=O)nc(n4)N(CCO)CCO)cc3[S]([O-])(=O)=O)c(c2)[S]([O-])(=O)=O)nc(Nc6cc(ccc6[S]([O-])(=O)=O)[S]([O-])(=O)=O)n1,-0.6924056,0,1,G1,1369.148,-19.768,268.0292,86,34,8,46,26,432,6,0,0,6,556.06,624.142845,1.20E-05,3827.925068
A-3969,dicaesium(1+) ion carbonate,"InChI=1S/CH2O3.2Cs/c2-1(3)4;;/h(H2,2,3,4);;/q;2*+1/p-2",FJDQFPXHSGXQBY-UHFFFAOYSA-L,[Cs+].[Cs+].[O-]C([O-])=O,0.930068755,0,1,G1,325.818,-8.439,5.396,6,3,0,5,0,24,0,0,0,0,63.19,153.0988189,-4.50E-08,31.77443751
A-3975,pivalic acid,"InChI=1S/C5H10O2/c1-5(2,3)4(6)7/h1-3H3,(H,6,7)",IUGYQRQAERSCNH-UHFFFAOYSA-N,CC(C)(C)C(O)=O,-0.563561886,0.054569057,2,G3,102.133,1.1171,27.0908,7,1,1,2,0,42,0,0,0,0,37.3,43.15477534,3.791118417,78.57116899
A-3976,"1-(2-hydroxyethyl)-2,2,6,6-tetramethylpiperidin-4-ol","InChI=1S/C11H23NO2/c1-10(2)7-9(14)8-11(3,4)12(10)5-6-13/h9,13-14H,5-8H2,1-4H3",STEYNUVPFMIUOY-UHFFFAOYSA-N,CC1(C)CC(O)CC(C)(C)N1CCO,-0.859820553,0,1,G1,201.31,0.9926,57.1906,14,3,2,3,2,84,0,1,1,1,43.7,86.73114219,2.847521437,183.4642123
A-3977,diethyl(prop-2-yn-1-yl)amine,"InChI=1S/C7H13N/c1-4-7-8(5-2)6-3/h1H,5-7H2,2-3H3",JZJXKEWVUBVOEH-UHFFFAOYSA-N,CCN(CC)CC#C,-0.602013123,0,1,G1,111.188,0.9614,36.621,8,1,0,1,3,46,0,0,0,0,3.24,51.68796278,3.248371277,76.87784056
A-3978,cobalt(2+) hydrogen citrate,"InChI=1S/C6H8O7.Co/c7-3(8)1-6(13,5(11)12)2-4(9)10;/h13H,1-2H2,(H,7,8)(H,9,10)(H,11,12);/q;+2/p-2",FDTVUHQHHXTXLW-UHFFFAOYSA-L,[Co++].OC(=O)CC(O)(CC([O-])=O)C([O-])=O,-0.954573972,0,1,G1,249.04,-3.9204,31.8336,14,6,2,8,5,81,0,0,0,0,137.79,88.54549639,0,232.5645748
A-3979,Cobaltous citrate,"InChI=1S/2C6H8O7.3Co/c2*7-3(8)1-6(13,5(11)12)2-4(9)10;;;/h2*13H,1-2H2,(H,7,8)(H,9,10)(H,11,12);;;/q;;3*+2/p-6",IEXXNGVQCLMTKU-UHFFFAOYSA-H,[Co++].[Co++].[Co++].OC(CC([O-])=O)(CC([O-])=O)C([O-])=O.OC(CC([O-])=O)(CC([O-])=O)C([O-])=O,-1.3025955,0,1,G1,554.997,-10.5127,58.4096,29,14,2,17,10,169,0,0,0,0,281.24,192.0425485,-1.20E-07,520.6497731
A-3985,barium(2+) ion dichloride,InChI=1S/Ba.2ClH.2H2O/h;2*1H;2*1H2/q+2;;;;/p-2,PWHCIQQGOQTFAE-UHFFFAOYSA-L,O.O.[Cl-].[Cl-].[Ba++],0.041892815,0.005578401,2,G3,244.264,-8.0222,12.9816,5,0,0,5,0,32,0,0,0,0,63,83.21231168,0,7.609640474
A-3986,"2-bromo-2-nitropropane-1,3-diol","InChI=1S/C3H6BrNO4/c4-3(1-6,2-7)5(8)9/h6-7H,1-2H2",LVDKZNITIUWNER-UHFFFAOYSA-N,OCC(Br)(CO)[N+]([O-])=O,0.127130857,0.029931276,4,G5,199.988,-0.6611,32.824,9,4,2,6,3,54,0,0,0,0,83.6,59.57812609,4.090340516,112.3803753
A-3987,copper(+1) cation sulfide,InChI=1S/2Cu.S/q2*+1;-2,AQMRBJNRFUQADD-UHFFFAOYSA-N,[SH--].[Cu+].[Cu+],-4.204573041,0,1,G1,160.167,-0.2751,8.76,3,0,0,3,0,29,0,0,0,0,0,47.75257276,0,2.754887502
A-3988,2-methyl-1H-imidazole,"InChI=1S/C4H6N2/c1-4-5-2-3-6-4/h2-3H,1H3,(H,5,6)",LXBGSDVWAMZHDD-UHFFFAOYSA-N,Cc1[nH]ccn1,0.512136366,0,1,G1,82.106,0.71812,23.3247,6,1,1,2,0,32,1,0,0,1,28.68,36.22515364,3.049648321,109.1085055
A-3989,Sodium trimetaphosphate,"InChI=1S/3Na.H3O9P3/c;;;1-10(2)7-11(3,4)9-12(5,6)8-10/h;;;(H,1,2)(H,3,4)(H,5,6)/q3*+1;/p-3",UGTZMIPZNRIWHX-UHFFFAOYSA-K,[Na+].[Na+].[Na+].[O-][P]1(=O)O[P]([O-])(=O)O[P]([O-])(=O)O1,-0.062309467,0,1,G1,305.883,-10.533,26.0745,15,9,0,15,0,72,0,1,1,1,148.08,150.9808456,-4.80E-07,265.1905083
A-3991,oxoselane oxide,InChI=1S/O2Se/c1-3-2,JPJALAQPGMAKDF-UHFFFAOYSA-N,O=[Se]=O,1.364774503,0,1,G1,110.958,-0.6184,7.127,3,2,0,3,0,18,0,0,0,0,34.14,23.39474668,3.265986324,23.77443751
A-3992,"1,3-dioxepane",InChI=1S/C5H10O2/c1-2-4-7-5-6-3-1/h1-5H2,CZLMRJZAHXYRIX-UHFFFAOYSA-N,C1CCOCOC1,0.41078966,0.028582753,2,G3,102.133,0.7709,26.005,7,2,0,2,0,42,0,1,1,1,18.46,43.42027879,2.041666667,25.69332843
A-3994,"pentasodium 4-amino-6-[(E)-2-{5-[(4-amino-6-chloro-1,3,5-triazin-2-yl)amino]-2-sulfonatophenyl}diazen-1-yl]-3-[(E)-2-(2,5-disulfonatophenyl)diazen-1-yl]-5-hydroxynaphthalene-2,7-disulfonate","InChI=1S/C25H19ClN10O16S5.5Na/c26-23-30-24(28)32-25(31-23)29-10-1-3-14(54(41,42)43)12(7-10)33-36-21-17(57(50,51)52)6-9-5-16(56(47,48)49)20(19(27)18(9)22(21)37)35-34-13-8-11(53(38,39)40)2-4-15(13)55(44,45)46;;;;;/h1-8,33H,27H2,(H,38,39,40)(H,41,42,43)(H,44,45,46)(H,47,48,49)(H,50,51,52)(H3,28,29,30,31,32);;;;;/q;5*+1/p-5/b35-34?,36-21+;;;;;",RAZBZSZIUMDHTB-WZTFRFCZSA-I,[Na+].[Na+].[Na+].[Na+].[Na+].Nc1nc(Cl)nc(Nc2ccc(c(N\N=C/3C(=O)c4c(N)c(N=Nc5cc(ccc5[S]([O-])(=O)=O)[S]([O-])(=O)=O)c(cc4C=C3[S]([O-])(=O)=O)[S]([O-])(=O)=O)c2)[S]([O-])(=O)=O)n1,-0.590800584,0,1,G1,1021.179,-14.9647,185.3617,62,26,4,37,11,302,4,0,1,5,454.92,465.7926726,7.44E-06,3109.042284
A-3996,4-methylpent-3-en-2-one,"InChI=1S/C6H10O/c1-5(2)4-6(3)7/h4H,1-3H3",SHOJXDKTYKFBRD-UHFFFAOYSA-N,CC(C)=CC(C)=O,-0.560826234,0.014913117,2,G3,98.145,1.5416,30.112,7,1,0,1,1,40,0,0,0,0,17.07,44.03588067,3.679228032,96.74764727
A-3997,"disodium 3-[(E)-2-(5-chloro-2-hydroxyphenyl)diazen-1-yl]-4,5-dihydroxynaphthalene-2,7-disulfonate","InChI=1S/C16H11ClN2O9S2.2Na/c17-8-1-2-11(20)10(5-8)18-19-15-13(30(26,27)28)4-7-3-9(29(23,24)25)6-12(21)14(7)16(15)22;;/h1-6,18,20-21H,(H,23,24,25)(H,26,27,28);;/q;2*+1/p-2/b19-15+;;",RAIRBURLMTXYPH-WTBAQZMLSA-L,[Na+].[Na+].Oc1ccc(Cl)cc1N\N=C/2C(=O)c3c(O)cc(cc3C=C2[S]([O-])(=O)=O)[S]([O-])(=O)=O,-1.289808658,0,1,G1,518.82,-4.7862,102.2492,32,11,3,16,4,158,2,0,1,3,196.32,230.8054794,2.56E-06,1374.118085
A-3998,C.i.Basic Violet 11,"InChI=1S/C30H35N2O3.ClH/c1-6-31(7-2)21-15-17-25-27(19-21)35-28-20-22(32(8-3)9-4)16-18-26(28)29(25)23-13-11-12-14-24(23)30(33)34-10-5;/h11-20H,6-10H2,1-5H3;1H/q+1;/p-1",UOKMUTMXUMSRKM-UHFFFAOYSA-M,[Cl-].CCOC(=O)c1ccccc1c2c3ccc(cc3[o+]c4cc(ccc24)N(CC)CC)N(CC)CC,-1.280189706,0,1,G1,507.074,4.4072,146.6415,36,4,0,6,9,190,4,0,0,4,44.08,219.6188344,3.61E-06,1277.113937
A-3999,4-chlorophenol,"InChI=1S/C6H5ClO/c7-5-1-3-6(8)4-2-5/h1-4,8H",WXNZTHHGJRFXKQ-UHFFFAOYSA-N,Oc1ccc(Cl)cc1,-0.687659717,0.022773503,5,G5,128.558,2.0456,33.1168,8,1,1,2,0,42,1,0,0,1,20.23,52.5289031,3.032455532,147.3883389
A-4000,methacrylonitrile,"InChI=1S/C4H5N/c1-4(2)3-5/h1H2,2H3",GYCMBHHDWRMZGG-UHFFFAOYSA-N,CC(=C)C#N,-0.406708517,0.024286983,4,G5,67.091,1.08608,20.427,5,1,0,1,0,26,0,0,0,0,23.79,31.53705402,3.348800764,76.13896549
A-4001,2-methylphenol,"InChI=1S/C7H8O/c1-6-4-2-3-5-7(6)8/h2-5,8H,1H3",QWVGKYWNOKOFNN-UHFFFAOYSA-N,Cc1ccccc1O,-0.619013017,0.00851667,2,G3,108.14,1.70062,32.8438,8,1,1,1,0,42,1,0,0,1,20.23,48.59057899,3.134861511,160.4966295
A-4004,dilithium(1+) ion sulfate,"InChI=1S/2Li.H2O4S/c;;1-5(2,3)4/h;;(H2,1,2,3,4)/q2*+1;/p-2",INHCSSUBVCNVSK-UHFFFAOYSA-L,[Li+].[Li+].[O-][S]([O-])(=O)=O,0.392124281,0.058959133,3,G5,109.945,-7.33,10.4746,7,4,0,7,0,32,0,0,0,0,80.26,65.6013136,-8.00E-08,92.85820232
A-4006,dimethyl[2-[(2-methyl-1-oxoallyl)oxy]ethyl](3-sulphopropyl)ammonium hydroxide,"InChI=1S/C11H21NO5S/c1-10(2)11(13)17-8-7-12(3,4)6-5-9-18(14,15)16/h1,5-9H2,2-4H3",BCAIDFOKQCVACE-UHFFFAOYSA-N,CC(=C)C(=O)OCC[N+](C)(C)CCC[S]([O-])(=O)=O,0.96273997,0,1,G1,279.358,0.1174,66.7966,18,5,0,7,8,106,0,0,0,0,83.5,108.5725776,3.93728746,399.6566348
A-4009,"disodium 2-{4-[(2E)-2-cyano-3-{4-[methyl(2-sulfonatoethyl)amino]phenyl}prop-2-enamido]phenyl}-6-methyl-1,3-benzothiazole-7-sulfonate","InChI=1S/C27H24N4O7S3.2Na/c1-17-3-12-23-24(25(17)41(36,37)38)39-27(30-23)19-6-8-21(9-7-19)29-26(32)20(16-28)15-18-4-10-22(11-5-18)31(2)13-14-40(33,34)35;;/h3-12,15H,13-14H2,1-2H3,(H,29,32)(H,33,34,35)(H,36,37,38);;/q;2*+1/p-2/b20-15+;;",RXTSUBROMXGEJZ-ZAWKPCBGSA-L,[Na+].[Na+].CN(CC[S]([O-])(=O)=O)c1ccc(cc1)/C=C(C#N)/C(=O)Nc2ccc(cc2)c3sc4c(ccc(C)c4[S]([O-])(=O)=O)n3,-0.415949942,0,1,G1,656.675,-2.2891,154.2521,43,11,1,16,9,212,4,0,0,4,183.42,297.2650701,3.23E-06,1920.051123
A-4017,2-phenoxyethan-1-ol,"InChI=1S/C8H10O2/c9-6-7-10-8-4-2-1-3-5-8/h1-5,9H,6-7H2",QCDWFXQBSFUVSP-UHFFFAOYSA-N,OCCOc1ccccc1,-0.742461176,0.0190644,4,G5,138.166,1.0577,39.0228,10,2,1,2,3,54,1,0,0,1,29.46,60.06906633,2.426522347,171.8722824
A-4020,potassium hydrogen oxalate,"InChI=1S/C2H2O4.K/c3-1(4)2(5)6;/h(H,3,4)(H,5,6);/q;+1/p-1",JMTCDHVHZSGGJA-UHFFFAOYSA-M,[K+].OC(=O)C([O-])=O,-0.70969048,0,1,G1,128.124,-5.1751,12.6428,7,3,1,5,0,34,0,0,0,0,77.43,81.93826954,0,75.69058447
A-4023,"7-acetamido-4-hydroxy-3-[[4-[[2-(sulphooxy)ethyl]sulphonyl]phenyl]azo]naphthalene-2-sulphonic acid, sodium salt","InChI=1S/C20H19N3O11S3.2Na/c1-12(24)21-15-4-7-17-13(10-15)11-18(36(28,29)30)19(20(17)25)23-22-14-2-5-16(6-3-14)35(26,27)9-8-34-37(31,32)33;;/h2-7,10-11,22H,8-9H2,1H3,(H,21,24)(H,28,29,30)(H,31,32,33);;/q;2*+1/p-2/b23-19-;;",RVERFAMJEQKFQK-HHUIZHIGSA-L,[Na+].[Na+].CC(=O)Nc1ccc2C(=O)C(=N/Nc3ccc(cc3)[S](=O)(=O)CCO[S]([O-])(=O)=O)\C(=Cc2c1)[S]([O-])(=O)=O,-0.39639349,0,1,G1,617.547,-5.546,127.9521,39,13,2,19,9,198,2,0,1,3,228.33,268.0328459,3.80E-06,1653.924339
A-4024,N'-acetylacetohydrazide,"InChI=1S/C4H8N2O2/c1-3(7)5-6-4(2)8/h1-2H3,(H,5,7)(H,6,8)",ZLHNYIHIHQEHJQ-UHFFFAOYSA-N,CC(=O)NNC(C)=O,0.328668176,0.055787388,2,G3,116.12,-0.8264,27.6334,8,2,2,4,0,46,0,0,0,0,58.2,47.22698196,3.181845867,96.60593782
A-4025,ethyl 2-cyclohexylpropanoate,"InChI=1S/C11H20O2/c1-3-13-11(12)9(2)10-7-5-4-6-8-10/h9-10H,3-8H2,1-2H3",PZUDDXJZNSJESK-UHFFFAOYSA-N,CCOC(=O)C(C)C1CCCCC1,-3.327456749,0,1,G1,184.279,2.7659,52.372,13,2,0,2,3,76,0,1,1,1,26.3,80.65790835,2.352919439,159.473214
A-4026,calcium bis((2S)-5-oxopyrrolidine-2-carboxylate),"InChI=1S/C5H7NO3.Ca/c7-4-2-1-3(6-4)5(8)9;/h3H,1-2H2,(H,6,7)(H,8,9);/q;+2/p-1",DPKBGUHEYKGWSC-UHFFFAOYSA-M,[Ca++].[O-]C(=O)C1CCC(=O)N1,0.165147848,0,1,G1,168.185,-2.3659,31.9257,10,3,1,5,1,50,0,1,1,1,69.23,87.97609646,8.10E-07,158.972053
A-4028,disodium oxybis[methylbenzenesulphonate],"InChI=1S/C14H14O7S2.2Na/c1-9-3-11(7-13(5-9)22(15,16)17)21-12-4-10(2)6-14(8-12)23(18,19)20;;/h3-8H,1-2H3,(H,15,16,17)(H,18,19,20);;/q;2*+1/p-2",UGVJAWDVDTXCQA-UHFFFAOYSA-L,[Na+].[Na+].Cc1cc(Oc2cc(C)cc(c2)[S]([O-])(=O)=O)cc(c1)[S]([O-])(=O)=O,-0.220796195,0,1,G1,402.357,-4.08806,78.3584,25,7,0,11,4,124,2,0,0,2,123.63,190.415998,2.88E-06,891.1699375
A-4029,2-(dimethylamino)ethyl acrylate,"InChI=1S/C7H13NO2/c1-4-7(9)10-6-5-8(2)3/h4H,1,5-6H2,2-3H3",DPBJAVGHACCNRL-UHFFFAOYSA-N,CN(C)CCOC(=O)C=C,0.224310685,0.309894379,2,G3,143.186,0.2772,39.71,10,3,0,3,4,58,0,0,0,0,29.54,61.27420168,3.194865025,120.7745144
A-4030,"4-methyl-1,3-dioxolan-2-one","InChI=1S/C4H6O3/c1-3-2-6-4(5)7-3/h3H,2H2,1H3",RUOJZAUFBMNUDX-UHFFFAOYSA-N,CC1COC(=O)O1,0.371232292,0.068586597,2,G3,102.089,0.5417,21.895,7,3,0,3,0,40,0,1,1,1,35.53,41.21685878,2.397067143,88.93569697
A-4031,(4-methoxyphenyl)methanol,"InChI=1S/C8H10O2/c1-10-8-4-2-7(6-9)3-5-8/h2-5,9H,6H2,1H3",MSHFRERJPWKJFX-UHFFFAOYSA-N,COc1ccc(CO)cc1,-0.744727146,0.561791562,3,G4,138.166,1.1875,38.9168,10,2,1,2,2,54,1,0,0,1,29.46,60.06906633,2.797251263,167.9174942
A-4032,aniline; formaldehyde,"InChI=1S/C6H7N.CH2O/c7-6-4-2-1-3-5-6;1-2/h1-5H,7H2;1H2",OUCPJZWNFRYRBI-UHFFFAOYSA-N,Nc1ccccc1.C=O,-2.004092218,0.277831936,3,G5,123.155,1.0839,37.9754,9,2,1,2,0,48,1,0,0,1,43.09,54.30358918,2.91E-07,150.2621395
A-4034,1-ethynylcyclohexanol,"InChI=1S/C8H12O/c1-2-8(9)6-4-3-5-7-8/h1,9H,3-7H2",QYLFHLNFIHBCPR-UHFFFAOYSA-N,OC1(CCCCC1)C#C,-0.704896063,0,1,G1,124.183,1.3148,36.8678,9,1,1,1,0,50,0,1,1,1,20.23,56.08147382,2.489256686,125.9932866
A-4036,"1,3-dioxo-1,3-dihydro-2-benzofuran-5-carboxylic acid","InChI=1S/C9H4O5/c10-7(11)4-1-2-5-6(3-4)9(13)14-8(5)12/h1-3H,(H,10,11)",SRPWOOOHEPICQU-UHFFFAOYSA-N,OC(=O)c1ccc2C(=O)OC(=O)c2c1,-0.896196315,0.092740888,2,G3,192.126,0.6954,43.1473,14,4,1,5,1,70,1,0,1,2,80.67,77.91274359,2.607619015,460.2701601
A-4039,caesium(1+) ion nitrate,InChI=1S/Cs,TVFDJXOCXUVLDH-UHFFFAOYSA-N,[Cs],0.255764198,0,1,G1,132.905,-0.3808,5.754,1,0,0,1,0,1,0,0,0,0,0,66.6732669,0,0
A-4040,"3-hydroxy-2,2-dimethylpropyl 3-hydroxy-2,2-dimethylpropanoate","InChI=1S/C10H20O4/c1-9(2,5-11)7-14-8(13)10(3,4)6-12/h11-12H,5-7H2,1-4H3",SZCWBURCISJFEZ-UHFFFAOYSA-N,CC(C)(CO)COC(=O)C(C)(C)CO,0.068201817,0.029676331,2,G3,204.266,0.5666,52.6926,14,4,2,4,5,84,0,0,0,0,66.76,84.88726489,4.098442002,196.2986792
A-4041,"copper(2+) ion tetrasodium 8-[(4-amino-6-chloro-1,3,5-triazin-2-yl)amino]-2-[(E)-2-(1-oxido-4,8-disulfonatonaphthalen-2-yl)diazen-1-yl]-3,6-disulfonatonaphthalen-1-olate","InChI=1S/C23H16ClN7O14S4.Cu.4Na/c24-21-27-22(25)29-23(28-21)26-11-6-9(46(34,35)36)4-8-5-15(49(43,44)45)18(20(33)16(8)11)31-30-12-7-14(48(40,41)42)10-2-1-3-13(47(37,38)39)17(10)19(12)32;;;;;/h1-7,32-33H,(H,34,35,36)(H,37,38,39)(H,40,41,42)(H,43,44,45)(H3,25,26,27,28,29);;;;;/q;+2;4*+1/p-6",BQWFGICULAHUSM-UHFFFAOYSA-H,[Na+].[Na+].[Na+].[Na+].[Cu++].Nc1nc(Cl)nc(Nc2cc(cc3cc(c(N=Nc4cc(c5cccc(c5c4[O-])[S]([O-])(=O)=O)[S]([O-])(=O)=O)c([O-])c23)[S]([O-])(=O)=O)[S]([O-])(=O)=O)n1,-0.590781442,0,1,G1,927.595,-11.6503,155.3489,54,21,2,31,8,267,5,0,0,5,376.36,408.5598918,5.62E-06,2752.345164
A-4043,"1,3-diaminourea","InChI=1S/CH6N4O/c2-4-1(6)5-3/h2-3H2,(H2,4,5,6)",XEVRDFDBXJMZFG-UHFFFAOYSA-N,NNC(=O)NN,0.414558554,0,1,G1,90.086,-1.967,20.0422,6,3,4,5,0,36,0,0,0,0,93.17,34.62055093,2.988160882,45.509775
A-4044,pentan-2-ol,"InChI=1S/C5H12O/c1-3-4-5(2)6/h5-6H,3-4H2,1-2H3",JYVLIDXNZAXMDK-UHFFFAOYSA-N,CCCC(C)O,-0.254140825,0.020879588,2,G3,88.15,1.1673,26.5888,6,1,1,1,2,38,0,0,0,0,20.23,38.99325324,2.627214848,25.11941548
A-4045,"sodium 1-(3,4-dihydro-6-methyl-2,4-dioxo-2H-pyran-3-ylidene)ethanolate","InChI=1S/C8H7O4.Na/c1-4-3-6(10)7(5(2)9)8(11)12-4;/h3H,1-2H3;/q-1;+1",YIOCQGHBBNGBND-UHFFFAOYSA-N,[Na+].CC(=O)[C-]1C(=O)OC(=CC1=O)C,0.084561332,0,1,G1,190.13,-2.76608,41.5825,13,4,0,5,1,64,1,0,0,1,64.35,96.22901221,1.44E-06,395.2555466
A-4047,3-methylphenol,"InChI=1S/C7H8O/c1-6-3-2-4-7(8)5-6/h2-5,8H,1H3",RLSSMJSEOOYNOY-UHFFFAOYSA-N,Cc1cccc(O)c1,-0.662918503,0.007521002,2,G3,108.14,1.70062,32.8438,8,1,1,1,0,42,1,0,0,1,20.23,48.59057899,3.077660438,164.2466295
A-4049,methanethiol,"InChI=1S/CH4S/c1-2/h2H,1H3",LSDPWZHWYPCBBB-UHFFFAOYSA-N,CS,-0.314879436,0.0899176,2,G3,48.11,0.546,14.91,2,1,1,1,0,14,0,0,0,0,0,19.89431769,1,2
A-4052,2-propyloxirane,"InChI=1S/C5H10O/c1-2-3-5-4-6-5/h5H,2-4H2,1H3",SYURNNNQIFDVCA-UHFFFAOYSA-N,CCCC1CO1,-0.57344678,0,1,G1,86.134,1.1853,24.648,6,1,0,1,2,36,0,1,1,1,12.53,38.30673356,1.876285895,39.20310344
A-4055,potassium difluorodihydroxyboranuide,"InChI=1S/BF2H2O2.K/c2-1(3,4)5;/h4-5H;/q-1;+1",VRMTUNITGONABS-UHFFFAOYSA-N,[K+].O[B-](O)(F)F,-0.724347118,0.178929966,4,G5,121.92,-3.6504,12.4076,6,2,2,6,0,32,0,0,0,0,40.46,76.0429762,0,27.01955001
A-4056,sodium 5-[[4-acetamido-2-(trifluoromethyl)phenyl]azo]-6-amino-4-hydroxynaphthalene-2-sulphonate,"InChI=1S/C19H15F3N4O5S.Na/c1-9(27)24-11-3-5-15(13(7-11)19(20,21)22)25-26-18-14(23)4-2-10-6-12(32(29,30)31)8-16(28)17(10)18;/h2-8,23,25-26H,1H3,(H,24,27)(H,29,30,31);/q;+1/p-1",OESZMLMGVFCVEX-UHFFFAOYSA-M,[Na+].CC(=O)Nc1ccc(NNC2=C3C(=O)C=C(C=C3C=CC2=N)[S]([O-])(=O)=O)c(c1)C(F)(F)F,-1.328818198,0,1,G1,490.395,-0.63383,107.269,33,8,4,14,5,168,1,0,2,3,151.28,207.5723358,3.85E-06,1280.582761
A-4061,benzoate; diaminomethylideneazanium,"InChI=1S/C7H6O2.CH6N3/c8-7(9)6-4-2-1-3-5-6;2-1(3)4/h1-5H,(H,8,9);2-4H2/q;+1/p-1",KNBXROBXQPEXAM-UHFFFAOYSA-M,N[C+](N)N.[O-]C(=O)c1ccccc1,0.005016256,0,1,G1,181.195,-1.64041,46.5777,13,5,3,5,1,70,1,0,0,1,118.19,76.14254645,3.10E-07,246.0709813