ID,Name,InChI,InChIKey,SMILES,Solubility,SD,Ocurrences,Group,MolWt,MolLogP,MolMR,HeavyAtomCount,NumHAcceptors,NumHDonors,NumHeteroatoms,NumRotatableBonds,NumValenceElectrons,NumAromaticRings,NumSaturatedRings,NumAliphaticRings,RingCount,TPSA,LabuteASA,BalabanJ,BertzCT
A-3066,3-chloro-4-[(3-fluorophenyl)methoxy]aniline,"InChI=1S/C13H11ClFNO/c14-12-7-11(16)4-5-13(12)17-8-9-2-1-3-10(15)6-9/h1-7H,8,16H2",AYPFEYDGZDPAPE-UHFFFAOYSA-N,Nc1ccc(OCc2cccc(F)c2)c(Cl)c1,-4.693292334,0,1,G1,251.688,3.6403,66.5964,17,2,1,4,3,88,2,0,0,2,35.25,103.775677,2.070946827,530.5779539
A-3067,"2-(4-bromo-3-hydroxyquinolin-2-yl)-2,3-dihydro-1H-indene-1,3-dione","InChI=1S/C18H10BrNO3/c19-14-11-7-3-4-8-12(11)20-15(18(14)23)13-16(21)9-5-1-2-6-10(9)17(13)22/h1-8,13,23H",DVBLPJWQXDCAKU-UHFFFAOYSA-N,Oc1c(Br)c2ccccc2nc1C3C(=O)c4ccccc4C3=O,-4.867097266,0,1,G1,368.186,3.8657,88.9518,23,4,1,5,1,112,3,0,1,4,67.26,139.4636306,1.960591538,961.723299
A-3068,"2,6,10,15,19,23-hexamethyltetracosane","InChI=1S/C30H62/c1-25(2)15-11-19-29(7)23-13-21-27(5)17-9-10-18-28(6)22-14-24-30(8)20-12-16-26(3)4/h25-30H,9-24H2,1-8H3",PRAKJMSDJKAYCZ-UHFFFAOYSA-N,CC(C)CCCC(C)CCCC(C)CCCCC(C)CCCC(C)CCCC(C)C,-5.14904043,0.320378789,3,G5,422.826,11.0844,140.204,30,0,0,0,21,182,0,0,0,0,0,193.3225723,3.53656201,307.9474732
A-3072,calcium dioxido-oxotin,InChI=1S/Ca.3O.Sn/q+2;;2*-1;,HNQGTZYKXIXXST-UHFFFAOYSA-N,[Ca++].[O-][Sn]([O-])=O,-5.616551128,0,1,G1,206.786,-3.2584,12.1945,5,3,0,5,0,24,0,0,0,0,63.19,67.20750573,0,29.87430298
A-3073,octadec-2-enylsuccinic acid,"InChI=1S/C22H40O4/c1-2-3-4-5-6-7-8-9-10-11-12-13-14-15-16-17-18-20(22(25)26)19-21(23)24/h16-17,20H,2-15,18-19H2,1H3,(H,23,24)(H,25,26)/b17-16+",OVQJAEGJPUEXQD-WUKNDPDISA-N,CCCCCCCCCCCCCCC/C=C/CC(CC(O)=O)C(O)=O,-6.964445851,0.770477404,2,G2,368.558,6.5895,107.4476,26,2,2,4,19,152,0,0,0,0,74.6,159.6249441,3.369474084,376.3385372
A-3074,"3-[2-(hexadecyloxy)phenyl]-3-oxo-N-(4-phenyl-1,3-thiazol-2-yl)propanamide","InChI=1S/C34H46N2O3S/c1-2-3-4-5-6-7-8-9-10-11-12-13-14-20-25-39-32-24-19-18-23-29(32)31(37)26-33(38)36-34-35-30(27-40-34)28-21-16-15-17-22-28/h15-19,21-24,27H,2-14,20,25-26H2,1H3,(H,35,36,38)",SSGFKDXGKBJUNX-UHFFFAOYSA-N,CCCCCCCCCCCCCCCCOc1ccccc1C(=O)CC(=O)Nc2scc(n2)c3ccccc3,-4.847279535,0,1,G1,562.82,9.8817,167.3762,40,5,1,6,21,216,3,0,0,3,68.29,244.3259546,1.280803141,1128.980199
A-3075,2-isopropoxyethyl acetate,"InChI=1S/C7H14O3/c1-6(2)9-4-5-10-7(3)8/h6H,4-5H2,1-3H3",HCDJVEYJSSTYSW-UHFFFAOYSA-N,CC(C)OCCOC(C)=O,-0.165775242,0,1,G1,146.186,0.9745,37.721,10,3,0,3,4,60,0,0,0,0,35.53,61.31751627,2.98069223,99.02434166
A-3076,triammonium hexachlororhodate,InChI=1S/6ClH.3H3N.Rh/h6*1H;3*1H3;/q;;;;;;;;;+3/p-3,OJNYBYILSUWBHM-UHFFFAOYSA-K,[NH4+].[NH4+].[NH4+].[Cl-].[Cl-].[Cl-].[Cl-].[Cl-].[Cl-].[Rh+3],-0.56876707,0,1,G1,369.741,-16.8499,17.9544,10,0,3,10,0,78,0,0,0,0,109.5,111.5776164,0,12.95461844
A-3077,"2,2,4-trimethylhexanedioic acid; 2,4,4-trimethylhexanedioic acid","InChI=1S/C9H16O4/c1-6(4-7(10)11)5-9(2,3)8(12)13/h6H,4-5H2,1-3H3,(H,10,11)(H,12,13)",DWFUTNJGNBYHNN-UHFFFAOYSA-N,CC(CC(O)=O)CC(C)(C)C(O)=O,-0.279037497,0,1,G1,188.223,1.5981,47.4506,13,2,2,4,5,76,0,0,0,0,74.6,77.57029965,4.111090985,207.6602413
A-3078,2-hydroxy-5-sulfobenzoic acid,"InChI=1S/C7H6O6S/c8-6-2-1-4(14(11,12)13)3-5(6)7(9)10/h1-3,8H,(H,9,10)(H,11,12,13)",YCPXWRQRBFJBPZ-UHFFFAOYSA-N,OC(=O)c1cc(ccc1O)[S](O)(=O)=O,0.655490272,0,1,G1,218.186,0.3371,44.8807,14,4,3,7,2,76,1,0,0,1,111.9,79.17497085,3.416533376,474.953429
A-3079,morpholin-4-ium sulfamate,"InChI=1S/C4H9NO.H3NO3S/c1-3-6-4-2-5-1;1-5(2,3)4/h5H,1-4H2;(H3,1,2,3,4)",PHUIJNUKWTUKLJ-UHFFFAOYSA-N,N[S](O)(=O)=O.C1COCCN1,0.727886015,0,1,G1,184.217,-1.6459,39.4247,11,4,3,7,0,68,0,1,1,1,101.65,65.601389,1.87E-07,155.0213046
A-3080,potassium fluoride,InChI=1S/FH.K/h1H;/q;+1/p-1,NROKBHXJSPEDAR-UHFFFAOYSA-M,[F-].[K+],1.228407286,0,1,G1,58.096,-5.992,0,2,0,0,2,0,8,0,0,0,0,0,55.01970542,0,2
A-3081,1-(2-hydroxyethyl)imidazolidin-2-one,"InChI=1S/C5H10N2O2/c8-4-3-7-2-1-6-5(7)9/h8H,1-4H2,(H,6,9)",HBAIZGPCSAAFSU-UHFFFAOYSA-N,OCCN1CCNC1=O,0.877677326,0,1,G1,130.147,-0.9961,32.0575,9,2,2,4,2,52,0,1,1,1,52.57,53.45864004,2.309791815,115.5256224
A-3082,"4-(2-hydroxyethoxy)benzene-1,3-diaminium sulfate","InChI=1S/C8H12N2O2/c9-6-1-2-8(7(10)5-6)12-4-3-11/h1-2,5,11H,3-4,9-10H2",WCPGNFONICRLCL-UHFFFAOYSA-N,Nc1ccc(OCCO)c(N)c1,-0.233704176,0,1,G1,168.196,0.2221,47.8476,12,4,3,4,3,66,1,0,0,1,81.5,70.74884772,2.722334697,263.2348149
A-3083,2-methylprop-2-enoic acid,"InChI=1S/C4H6O2/c1-3(2)4(5)6/h1H2,2H3,(H,5,6)",CERQOIWHTDAKMF-UHFFFAOYSA-N,CC(=C)C(O)=O,0.056273368,0.020936684,2,G3,86.09,0.6471,22.4498,6,1,1,2,1,34,0,0,0,0,37.3,36.10023019,3.567703455,71.54887502
A-3084,2-methylprop-2-enoyl 2-methylprop-2-enoate,"InChI=1S/C8H10O3/c1-5(2)7(9)11-8(10)6(3)4/h1,3H2,2,4H3",DCUFMVPCXCSVNP-UHFFFAOYSA-N,CC(=C)C(=O)OC(=O)C(C)=C,-0.196759712,0,1,G1,154.165,1.2084,40.727,11,3,0,3,2,60,0,0,0,0,43.37,65.35122919,4.069307058,201.4916698
A-3086,tetraethylazanium benzoate,"InChI=1S/C8H20N.C7H6O2/c1-5-9(6-2,7-3)8-4;8-7(9)6-4-2-1-3-5-6/h5-8H2,1-4H3;1-5H,(H,8,9)/q+1;/p-1",CIFIGXMZHITUAZ-UHFFFAOYSA-M,CC[N+](CC)(CC)CC.[O-]C(=O)c1ccccc1,0.583312842,0,1,G1,251.37,1.9329,73.1969,18,2,0,3,5,102,1,0,0,1,40.13,110.6472743,3.21E-07,314.09688
A-3087,sodium cyanate,InChI=1S/CHNO.Na/c2-1-3;/h3H;/q;+1/p-1,ZVCDLGYNFYZZOK-UHFFFAOYSA-M,[Na+].[O-]C#N,0.17111691,0,1,G1,65.007,-4.16822,5.613,4,2,0,3,0,16,0,0,0,0,46.85,46.33946408,0,29.509775
A-3088,sodium hydrogen carbonate,"InChI=1S/CH2O3.Na/c2-1(3)4;/h(H2,2,3,4);/q;+1/p-1",UIIMBOGNXHQVGW-UHFFFAOYSA-M,[Na+].OC([O-])=O,0.057960927,0.028848747,3,G5,84.006,-4.1083,8.0248,5,2,1,4,0,24,0,0,0,0,60.36,50.90264025,0,29.87430298
A-3089,2-[(2-hydroxyethyl)amino]ethan-1-ol,"InChI=1S/C4H11NO2/c6-3-1-5-2-4-7/h5-7H,1-4H2",ZBCBWPMODOFKDW-UHFFFAOYSA-N,OCCNCCO,0.957792794,0.010203603,2,G3,105.137,-1.4394,27.0413,7,3,3,3,4,44,0,0,0,0,52.49,42.97240706,2.447472888,28.8707654
A-3091,2-(2-{2-[2-(prop-2-enoyloxy)ethoxy]ethoxy}ethoxy)ethyl prop-2-enoate,"InChI=1S/C14H22O7/c1-3-13(15)20-11-9-18-7-5-17-6-8-19-10-12-21-14(16)4-2/h3-4H,1-2,5-12H2",HCLJOFJIQIJXHS-UHFFFAOYSA-N,C=CC(=O)OCCOCCOCCOCCOC(=O)C=C,-0.500013296,0,1,G1,302.323,0.4946,74.769,21,7,0,7,14,120,0,0,0,0,80.29,123.9950628,3.08712418,284.4443838
A-3093,"hydrogen 3,6-bis(diethylamino)-9-(2,4-disulphonatophenyl)xanthylium, sodium salt","InChI=1S/C29H34N2O7S2.Na/c1-7-30(8-2)24-16-26-22(13-18(24)5)29(21-12-11-20(39(32,33)34)15-28(21)40(35,36)37)23-14-19(6)25(17-27(23)38-26)31(9-3)10-4;/h11-17H,7-10H2,1-6H3,(H-,32,33,34,35,36,37);/q;+1/p-1",XJENLUNLXRJLEZ-UHFFFAOYSA-M,[Na+].CCN(CC)c1cc2[o+]c3cc(N(CC)CC)c(C)cc3c(c2cc1C)c4ccc(cc4[S]([O-])(=O)=O)[S]([O-])(=O)=O,-0.80532039,0,1,G1,608.714,2.65554,156.0854,41,8,0,12,9,214,4,0,0,4,132.18,263.4964033,4.62E-06,1758.057017
A-3097,sodium bromide,InChI=1S/BrH.Na/h1H;/q;+1/p-1,JHJLBTNAGRQEKS-UHFFFAOYSA-M,[Na+].[Br-],0.963501086,0,1,G1,102.894,-5.992,0,2,0,0,2,0,8,0,0,0,0,0,46.2945795,0,2
A-3098,1-methoxy-2-(2-methoxyethoxy)ethane,"InChI=1S/C6H14O3/c1-7-3-5-9-6-4-8-2/h3-6H2,1-2H3",SBZXBUIDTXKZTM-UHFFFAOYSA-N,COCCOCCOC,0.84545625,0.013421875,2,G3,134.175,0.2958,34.571,9,3,0,3,6,56,0,0,0,0,27.69,55.90459729,2.595082707,41.56763142
A-3099,(2E)-but-2-enoic acid,"InChI=1S/C4H6O2/c1-2-3-4(5)6/h2-3H,1H3,(H,5,6)/b3-2+",LDHQCZJRKDOVOX-NSCUHMNNSA-N,C/C=C/C(O)=O,0.038175146,0.019337573,2,G3,86.09,0.6471,22.4498,6,1,1,2,1,34,0,0,0,0,37.3,36.10023019,3.301627872,73.61727061
A-3100,barium dinitrate,InChI=1S/Ba.2NO3/c;2*2-1(3)4/q+2;2*-1,IWOUKMZUPDVPGQ-UHFFFAOYSA-N,[Ba++].[O-][N+]([O-])=O.[O-][N+]([O-])=O,-0.444071386,0,1,G1,261.336,-0.859,26.4768,9,6,0,9,0,48,0,0,0,0,132.4,88.75877657,-7.20E-08,69.05865003
A-3102,"bis(5-oxo-L-prolinato-N1,O2)zinc","InChI=1S/2C5H7NO3.Zn/c2*7-4-2-1-3(6-4)5(8)9;/h2*3H,1-2H2,(H,6,7)(H,8,9);/q;;+2/p-2",OWVLYQRCCIEOPF-UHFFFAOYSA-L,[Zn++].[O-]C(=O)C1CCC(=O)N1.[O-]C(=O)C2CCC(=O)N2,-0.534193588,0,1,G1,321.604,-3.9727,52.3434,19,6,2,9,2,100,0,2,2,2,138.46,121.2355072,3.24E-07,350.2161669
A-3104,calcium bis(dihydrogenorthophosphate),"InChI=1S/Ca.2H3O4P/c;2*1-5(2,3)4/h;2*(H3,1,2,3,4)/q+2;;/p-2",YYRMJZQKEFZXMX-UHFFFAOYSA-L,[Ca++].O[P](O)([O-])=O.O[P](O)([O-])=O,-0.396643053,0,1,G1,234.05,-3.502,29.8422,11,4,4,11,0,64,0,0,0,0,161.18,91.36053192,-1.07E-07,124.4015466
A-3115,potassium (dimethylamino)acetate,"InChI=1S/C4H9NO2.K/c1-5(2)3-4(6)7;/h3H2,1-2H3,(H,6,7);/q;+1/p-1",WHXRLGMKAWGISQ-UHFFFAOYSA-M,[K+].CN(C)CC([O-])=O,0.809172864,0,1,G1,141.211,-4.6981,23.561,8,3,0,4,2,42,0,0,0,0,43.37,91.47223159,0,74.4385619
A-3117,dipotassium carbonate,"InChI=1S/CH2O3.K/c2-1(3)4;/h(H2,2,3,4);/q;+1/p-1",TYJJADVDDVDEDZ-UHFFFAOYSA-M,[K+].OC([O-])=O,0.953747696,0.050376676,2,G3,100.114,-4.1083,8.0248,5,2,1,4,0,24,0,0,0,0,60.36,71.41180533,0,29.87430298
A-3118,3-methylbut-3-en-1-ol,"InChI=1S/C5H10O/c1-5(2)3-4-6/h6H,1,3-4H2,2H3",CPJRRXSHAYUTGL-UHFFFAOYSA-N,CC(=C)CCO,0.019067893,0,1,G1,86.134,0.9449,26.5168,6,1,1,1,2,36,0,0,0,0,20.23,38.30365021,2.83125711,47.90013453
A-3120,"sodium 3-(2H-1,2,3-benzotriazol-2-yl)-5-(butan-2-yl)-4-hydroxybenzene-1-sulfonate","InChI=1S/C16H17N3O4S.Na/c1-3-10(2)12-8-11(24(21,22)23)9-15(16(12)20)19-17-13-6-4-5-7-14(13)18-19;/h4-10,20H,3H2,1-2H3,(H,21,22,23);/q;+1/p-1",XTXADMXOEMEPAC-UHFFFAOYSA-M,[Na+].CCC(C)c1cc(cc(n2nc3ccccc3n2)c1O)[S]([O-])(=O)=O,-1.57624495,0,1,G1,369.378,-0.4523,87.199,25,7,1,9,4,126,3,0,0,3,108.14,167.2615347,2.25E-06,984.3917767
A-3123,4-methylaniline,"InChI=1S/C7H9N/c1-6-2-4-7(8)5-3-6/h2-5H,8H2,1H3",RZXMPPFPUUCRFN-UHFFFAOYSA-N,Cc1ccc(N)cc1,-1.047745261,0.426205302,4,G5,107.156,1.57722,35.5914,8,1,1,1,0,42,1,0,0,1,26.02,49.13623593,3.032455532,143.2466295
A-3125,disodium 6-amino-5-[(E)-2-[4-(2-bromoprop-2-enamido)-2-(4-methyl-3-sulfonatobenzenesulfonyl)phenyl]diazen-1-yl]naphthalene-2-sulfonate,"InChI=1S/C26H21BrN4O9S3.2Na/c1-14-3-6-18(13-23(14)43(38,39)40)41(33,34)24-12-17(29-26(32)15(2)27)5-10-22(24)30-31-25-20-8-7-19(42(35,36)37)11-16(20)4-9-21(25)28;;/h3-13H,2,28H2,1H3,(H,29,32)(H,35,36,37)(H,38,39,40);;/q;2*+1/p-2",QTUYUTJUQCCNBJ-UHFFFAOYSA-L,[Na+].[Na+].Cc1ccc(cc1[S]([O-])(=O)=O)[S](=O)(=O)c2cc(NC(=O)C(Br)=C)ccc2N=Nc3c(N)ccc4cc(ccc34)[S]([O-])(=O)=O,-1.894836231,0,1,G1,753.542,-1.35808,158.2323,45,12,2,19,8,224,4,0,0,4,228.38,311.0724916,3.53E-06,2212.30323
A-3128,2-ethoxyphenol,"InChI=1S/C8H10O2/c1-2-10-8-6-4-3-5-7(8)9/h3-6,9H,2H2,1H3",MOEFFSWKSMRFRQ-UHFFFAOYSA-N,CCOc1ccccc1O,-1.171451504,0,1,G1,138.166,1.7909,39.2758,10,2,1,2,2,54,1,0,0,1,29.46,60.06906633,2.811180917,208.1674942
A-3129,"(5-ethyl-1,3-dioxan-5-yl)methyl prop-2-enoate","InChI=1S/C10H16O4/c1-3-9(11)14-7-10(4-2)5-12-8-13-6-10/h3H,1,4-8H2,2H3",STGXUBIZGYMIRM-UHFFFAOYSA-N,CCC1(COCOC1)COC(=O)C=C,-1.333054875,0,1,G1,200.234,1.1163,50.651,14,4,0,4,4,80,0,1,1,1,44.76,83.83045366,2.431292824,206.1675379
A-3132,4-hydroxy-3-methoxybenzaldehyde,"InChI=1S/C8H8O3/c1-11-8-4-6(5-9)2-3-7(8)10/h2-5,10H,1H3",MWOOGOJBHIARFG-UHFFFAOYSA-N,COc1cc(C=O)ccc1O,-1.228026593,0.043563296,2,G3,152.149,1.2133,40.0463,11,3,1,3,2,58,1,0,0,1,46.53,64.23058843,3.116164134,268.0397226
A-3133,dibromomethane,InChI=1S/CH2Br2/c2-1-3/h1H2,FJBFPHVGVWTDIP-UHFFFAOYSA-N,BrCBr,-1.285894713,0.060647356,2,G3,173.835,1.7337,22.721,3,0,0,2,0,20,0,0,0,0,0,36.47434624,1.632993162,2.754887502
A-3134,disodium selenite,"InChI=1S/2Na.H2O3Se/c;;1-4(2)3/h;;(H2,1,2,3)/q2*+1;/p-2",BVTBRVFYZUCAKH-UHFFFAOYSA-L,[Na+].[Na+].[O-][Se]([O-])=O,0.715388416,0,1,G1,172.937,-8.8696,6.4405,6,3,0,6,0,26,0,0,0,0,63.19,84.44067163,-4.50E-08,31.77443751
A-3135,sodium 1-benzylpyridin-1-ium-3-carboxylate chloride,"InChI=1S/C13H11NO2.ClH.Na/c15-13(16)12-7-4-8-14(10-12)9-11-5-2-1-3-6-11;;/h1-8,10H,9H2;1H;/q;;+1/p-1",ONCDUCAWXQKSDE-UHFFFAOYSA-M,[Na+].[Cl-].[O-]C(=O)c1ccc[n+](Cc2ccccc2)c1,0.519220267,0,1,G1,271.679,-5.6061,56.5115,18,2,0,5,3,88,2,0,0,2,44.01,134.1702497,1.44E-06,505.3542477
A-3137,2-methylbut-3-yn-2-amine,"InChI=1S/C5H9N/c1-4-5(2,3)6/h1H,6H2,2-3H3",VUGCBIWQHSRQBZ-UHFFFAOYSA-N,CC(C)(N)C#C,1.031655988,0,1,G1,83.134,0.3569,27.0994,6,1,1,1,0,34,0,0,0,0,26.02,38.53813557,3.552734355,70.91968454
A-3139,sodium vanadiumoylolate,InChI=1S/Na.3O.V/q+1;;;-1;,CMZUMMUJMWNLFH-UHFFFAOYSA-N,[Na+].[O-][V](=O)=O,0.266461374,0,1,G1,121.929,-4.4251,1.373,5,3,0,5,0,24,0,0,0,0,57.2,56.02849213,0,55.29331487
A-3140,"disodium 2-[(5-carbamoyl-1-ethyl-2-hydroxy-4-methyl-6-oxo-1,6-dihydropyridin-3-yl)diazenyl]-4-({4-[(2-chloro-5-sulfonatophenyl)amino]-6-fluoro-1,3,5-triazin-2-yl}amino)benzenesulfonate","InChI=1S/C24H21ClFN9O9S2.2Na/c1-3-35-20(37)17(19(27)36)10(2)18(21(35)38)34-33-15-8-11(4-7-16(15)46(42,43)44)28-23-30-22(26)31-24(32-23)29-14-9-12(45(39,40)41)5-6-13(14)25;;/h4-9,33H,3H2,1-2H3,(H2,27,36)(H,39,40,41)(H,42,43,44)(H2,28,29,30,31,32);;/q;2*+1/p-2/b34-18-;;",GBJBDVLMURYXQR-RJZFESICSA-L,[Na+].[Na+].CCN1C(=O)C(=N/Nc2cc(Nc3nc(F)nc(Nc4cc(ccc4Cl)[S]([O-])(=O)=O)n3)ccc2[S]([O-])(=O)=O)\C(=C(C(N)=O)C1=O)C,-0.921034384,0,1,G1,742.035,-5.0741,155.5169,48,16,4,24,10,242,3,0,1,4,281.99,320.4457889,4.00E-06,2103.680882
A-3144,1-[(2-hydroxypropyl)amino]propan-2-ol,"InChI=1S/C6H15NO2/c1-5(8)3-7-4-6(2)9/h5-9H,3-4H2,1-2H3",LVTYICIALWPMFW-UHFFFAOYSA-N,CC(O)CNCC(C)O,0.815044373,0.175085035,3,G5,133.191,-0.6624,36.2313,9,3,3,3,4,56,0,0,0,0,52.49,55.70229129,2.914658626,56.07820003
A-3146,Methenamine,InChI=1S/C6H12N4/c1-7-2-9-4-8(1)5-10(3-7)6-9/h1-6H2,VKYKSIONXSXAKP-UHFFFAOYSA-N,C1N2CN3CN1CN(C2)C3,0.792402682,0,1,G1,140.19,-1.0198,36.558,10,4,0,4,0,56,0,4,4,4,12.96,60.58580282,1.897366596,101.297481
A-3148,lanthanum(3+) ion trichloride,InChI=1S/3ClH.La.7H2O/h3*1H;;7*1H2/q;;;+3;;;;;;;/p-3,FDFPDGIMPRFRJP-UHFFFAOYSA-K,O.O.O.O.O.O.O.[Cl-].[Cl-].[Cl-].[La+3],0.365226597,0,1,G1,371.37,-14.7609,25.2966,11,0,0,11,0,80,0,0,0,0,220.5,110.2967351,0,13.64737585
A-3149,2-ethyloxirane,"InChI=1S/C4H8O/c1-2-4-3-5-4/h4H,2-3H2,1H3",RBACIKXCRWGCBB-UHFFFAOYSA-N,CCC1CO1,0.080542298,0.089896251,3,G5,72.107,0.7952,20.031,5,1,0,1,1,30,0,1,1,1,12.53,31.94179145,1.998939485,30.62919048
A-3150,aluminium(3+) ion triformate,"InChI=1S/3CH2O2.Al/c3*2-1-3;/h3*1H,(H,2,3);/q;;;+3/p-3",MJWPFSQVORELDX-UHFFFAOYSA-K,[Al+3].[O-]C=O.[O-]C=O.[O-]C=O,-0.274600321,0.039758694,2,G3,162.033,-5.2825,23.946,10,6,0,7,0,54,0,0,0,0,120.39,67.22157811,-2.57E-08,49.74860596
A-3151,cyclohexanone,InChI=1S/C6H10O/c7-6-4-2-1-3-5-6/h1-5H2,JHIVVAPYMSGYDF-UHFFFAOYSA-N,O=C1CCCCC1,-0.057369728,0.257749722,3,G5,98.145,1.5196,28.092,7,1,0,1,0,40,0,1,1,1,17.07,43.71965255,2.249544095,68.24920506
A-3153,diammonium [(sulfonoperoxoato sulfato)oxy]sulfonoperoxoate,"InChI=1S/2H3N.H2O8S2/c;;1-9(2,3)7-8-10(4,5)6/h2*1H3;(H,1,2,3)(H,4,5,6)",ROOXNKNUYICQNP-UHFFFAOYSA-N,[NH4+].[NH4+].[O-][S](=O)(=O)OO[S]([O-])(=O)=O,0.571095673,0,1,G1,228.204,-1.3926,33.534,12,8,2,12,3,78,0,0,0,0,205.86,68.47747519,-4.05E-07,251.01955
A-3159,(3-chloro-2-hydroxypropyl)trimethylazanium chloride,"InChI=1S/C6H15ClNO.ClH/c1-8(2,3)5-6(9)4-7;/h6,9H,4-5H2,1-3H3;1H/q+1;/p-1",CSPHGSFZFWKVDL-UHFFFAOYSA-M,[Cl-].C[N+](C)(C)CC(O)CCl,0.647406308,0,1,G1,188.098,-2.7037,39.6262,10,1,1,4,3,64,0,0,0,0,20.23,73.78435999,0,82.30722655
A-3162,"2,2-dimethylpropane-1,3-diol","InChI=1S/C5H12O2/c1-5(2,3-6)4-7/h6-7H,3-4H2,1-2H3",SLCVBVWXLSEKPL-UHFFFAOYSA-N,CC(C)(CO)CO,0.901422988,0,1,G1,104.149,-0.0028,27.9526,7,2,2,2,2,44,0,0,0,0,40.46,43.78748699,3.360435143,44.04184398
A-3163,ethyl acetate,"InChI=1S/C4H8O2/c1-3-6-4(2)5/h3H2,1-2H3",XEKOWRVHYACXOJ-UHFFFAOYSA-N,CCOC(C)=O,-0.025404461,0.016799804,3,G5,88.106,0.5694,22.307,6,2,0,2,1,36,0,0,0,0,26.3,37.1091447,2.83125711,49.509775
A-3164,"(1Z,5Z)-cycloocta-1,5-diene; rhodium; dichloride","InChI=1S/2C8H12.2Cl.2Rh/c2*1-2-4-6-8-7-5-3-1;;;;/h2*1-2,7-8H,3-6H2;;;;/b2*2-1-,8-7-;;;;",LGARIVPRHUAOKP-MIXQCLKLSA-N,[Cl].[Cl].[Rh].[Rh].C\1C\C=C/CC\C=C1.C\2C\C=C/CC\C=C2,-2.499798074,0,1,G1,493.086,6.7196,85.202,20,0,0,4,0,120,0,0,2,2,0,162.5219821,-1.07E-07,191.6504375
A-3165,"potassium hydrogen benzene-1,2-dicarboxylate","InChI=1S/C8H6O4.K/c9-7(10)5-3-1-2-4-6(5)8(11)12;/h1-4H,(H,9,10)(H,11,12);/q;+1/p-1",IWZKICVEHNUQTL-UHFFFAOYSA-M,[K+].OC(=O)c1ccccc1C([O-])=O,-0.391024433,0.540460954,2,G2,204.222,-3.2477,37.7318,13,3,1,5,2,62,1,0,0,1,77.43,116.9953637,1.44E-06,301.670841
A-3166,hexasodium; dioxido-dioxotungsten; trioxotungsten,InChI=1S/6Na.39O.12W/q6*+1;;;;;;;;;;;;;;;;;;;;;;;;;;;;;;;;;;6*-1;;;;;;;;;;;;,AZCSOJKJFMWYCX-UHFFFAOYSA-N,[Na+].[Na+].[Na+].[Na+].[Na+].[Na+].[O-][W]([O-])(=O)=O.[O-][W]([O-])(=O)=O.[O-][W]([O-])(=O)=O.O=[W](=O)=O.O=[W](=O)=O.O=[W](=O)=O.O=[W](=O)=O.O=[W](=O)=O.O=[W](=O)=O.O=[W](=O)=O.O=[W](=O)=O.O=[W](=O)=O,-0.472461116,0,1,G1,2967.981,-29.0604,22.6545,57,39,0,57,0,312,0,0,0,0,701.67,503.63022,-1.80E-08,1733.648709
A-3168,sodium 2-chloroacetate,"InChI=1S/C2H3ClO2.Na/c3-1-2(4)5;/h1H2,(H,4,5);/q;+1/p-1",FDRCDNZGSXJAFP-UHFFFAOYSA-M,[Na+].[O-]C(=O)CCl,0.848624184,0.007273554,2,G3,116.479,-4.0209,15.727,6,2,0,4,1,30,0,0,0,0,40.13,62.77661484,0,46.81274391
A-3169,azepan-2-one,"InChI=1S/C6H11NO/c8-6-4-2-1-3-5-7-6/h1-5H2,(H,7,8)",JBKVHLHDHHXQEQ-UHFFFAOYSA-N,O=C1CCCCCN1,0.860120914,0.020571503,3,G5,113.16,0.6766,31.4777,8,1,1,2,0,46,0,1,1,1,29.1,49.26951473,2.266696515,80.52932501
A-3171,sodium nitrite,"InChI=1S/HNO2.Na/c2-1-3;/h(H,2,3);/q;+1/p-1",LPXPTNMVRIOKMN-UHFFFAOYSA-M,[Na+].[O-]N=O,1.074996233,0.046406931,3,G5,68.995,-2.7454,9.162,4,3,0,4,0,18,0,0,0,0,52.49,45.23071277,0,13.509775
A-3172,sodium 4-methylbenzene-1-sulfonate,"InChI=1S/C7H8O3S.Na/c1-6-2-4-7(5-3-6)11(8,9)10;/h2-5H,1H3,(H,8,9,10);/q;+1/p-1",KVCGISUBCHHTDD-UHFFFAOYSA-M,[Na+].Cc1ccc(cc1)[S]([O-])(=O)=O,0.624533151,0,1,G1,194.187,-2.09688,39.1422,12,3,0,5,1,60,1,0,0,1,57.2,93.83838087,1.21E-06,341.4191672
A-3173,"1-N-(2-hydroxyethyl)-4-methoxybenzene-1,3-bis(aminium) sulfate","InChI=1S/C9H14N2O2.H2O4S/c1-13-9-3-2-7(6-8(9)10)11-4-5-12;1-5(2,3)4/h2-3,6,11-12H,4-5,10H2,1H3;(H2,1,2,3,4)",GWHLYFOWAINYAH-UHFFFAOYSA-N,COc1ccc([NH2+]CCO)cc1[NH3+].[O-][S]([O-])(=O)=O,-0.534342295,0,1,G1,280.302,-2.5822,59.5549,18,6,3,9,4,104,1,0,0,1,153.97,104.9614661,4.94E-07,454.1257066
A-3174,bis(prop-2-en-1-yl)amine,"InChI=1S/C6H11N/c1-3-5-7-6-4-2/h3-4,7H,1-2,5-6H2",DYUWTXWIYMHBQS-UHFFFAOYSA-N,C=CCNCC=C,-0.079006957,0.013003479,2,G3,97.161,0.948,33.2637,7,1,1,1,4,40,0,0,0,0,12.03,44.73461772,2.679549207,49.20035948
A-3175,dimethyl {3-[(hydroxymethyl)amino]-3-oxopropyl}phosphonate,"InChI=1S/C6H14NO5P/c1-11-13(10,12-2)4-3-6(9)7-5-8/h8H,3-5H2,1-2H3,(H,7,9)",MCONGYNHPPCHSD-UHFFFAOYSA-N,CO[P](=O)(CCC(=O)NCO)OC,1.578490674,0,1,G1,211.154,-0.0716,46.337,13,5,2,7,6,78,0,0,0,0,84.86,76.75961051,3.857453651,199.2012921
A-3179,"2,2'-ethene-1,2-diylbis[5-({4-anilino-6-[bis(2-hydroxyethyl)amino]-1,3,5-triazin-2-yl}amino)benzenesulfonic acid]","InChI=1S/C40H44N12O10S2/c53-21-17-51(18-22-54)39-47-35(41-29-7-3-1-4-8-29)45-37(49-39)43-31-15-13-27(33(25-31)63(57,58)59)11-12-28-14-16-32(26-34(28)64(60,61)62)44-38-46-36(42-30-9-5-2-6-10-30)48-40(50-38)52(19-23-55)20-24-56/h1-16,25-26,53-56H,17-24H2,(H,57,58,59)(H,60,61,62)(H2,41,43,45,47,49)(H2,42,44,46,48,50)/b12-11+",CNGYZEMWVAWWOB-VAWYXSNFSA-N,OCCN(CCO)c1nc(Nc2ccccc2)nc(Nc3ccc(\C=C\c4ccc(Nc5nc(Nc6ccccc6)nc(n5)N(CCO)CCO)cc4[S](O)(=O)=O)c(c3)[S](O)(=O)=O)n1,-1.059279349,0,1,G1,917,3.2768,239.8792,64,20,10,24,22,336,6,0,0,6,321.6,367.1479033,1.305768596,2575.189182
A-3180,hexanedinitrile,InChI=1S/C6H8N2/c7-5-3-1-2-4-6-8/h1-4H2,BTGRAWJCKBQKAO-UHFFFAOYSA-N,N#CCCCCC#N,-0.130912442,0,1,G1,108.144,1.59396,29.694,8,2,0,2,3,42,0,0,0,0,47.58,49.34912096,2.773901163,99.47067499
A-3181,3-oxo-N-phenylbutanamide,"InChI=1S/C10H11NO2/c1-8(12)7-10(13)11-9-5-3-2-4-6-9/h2-6H,7H2,1H3,(H,11,13)",DYRDKSSFIWVSNM-UHFFFAOYSA-N,CC(=O)CC(=O)Nc1ccccc1,-1.299081063,0,1,G1,177.203,1.6042,50.3697,13,2,1,3,3,68,1,0,0,1,46.17,76.76407796,2.504454987,305.9606013
A-3184,"1,3,3-trimethyl-2-[(1E)-[2-methyl-2-(4-methylphenyl)hydrazin-1-ylidene]methyl]-3H-indol-1-ium methyl sulfate","InChI=1S/C20H24N3.CH4O4S/c1-15-10-12-16(13-11-15)23(5)21-14-19-20(2,3)17-8-6-7-9-18(17)22(19)4;1-5-6(2,3)4/h6-14H,1-5H3;1H3,(H,2,3,4)/q+1;/p-1",WYYPHFSXWSKRQJ-UHFFFAOYSA-M,CO[S]([O-])(=O)=O.CN(N=CC1=[N+](C)c2ccccc2C1(C)C)c3ccc(C)cc3,-1.676206053,0,1,G1,417.531,3.21622,115.0996,29,6,0,8,4,156,2,0,1,3,85.04,172.4547476,4.38E-07,1026.146664