ID,Name,InChI,InChIKey,SMILES,Solubility,SD,Ocurrences,Group,MolWt,MolLogP,MolMR,HeavyAtomCount,NumHAcceptors,NumHDonors,NumHeteroatoms,NumRotatableBonds,NumValenceElectrons,NumAromaticRings,NumSaturatedRings,NumAliphaticRings,RingCount,TPSA,LabuteASA,BalabanJ,BertzCT
A-870,"2,2-dimethyl-3-methylidenebicyclo[2.2.1]heptane","InChI=1S/C10H16/c1-7-8-4-5-9(6-8)10(7,2)3/h8-9H,1,4-6H2,2-3H3",CRPUJAZIXJMDBK-UHFFFAOYSA-N,CC1(C)C2CCC(C2)C1=C,-4.471540428,0.019754271,2,G3,136.238,2.9987,43.752,10,0,0,0,0,56,0,2,2,2,0,63.32246472,2.336767753,176.4773318
A-871,2-[2-(4-methylcyclohex-3-en-1-yl)propyl]cyclopentan-1-one,"InChI=1S/C15H24O/c1-11-6-8-13(9-7-11)12(2)10-14-4-3-5-15(14)16/h6,12-14H,3-5,7-10H2,1-2H3",KNHGOYVXAHUDHP-UHFFFAOYSA-N,CC(CC1CCCC1=O)C2CCC(=CC2)C,-4.680367049,0,1,G1,220.356,4.1282,67.227,16,1,0,1,3,90,0,1,2,2,17.07,99.30869739,1.834418126,289.8100768
A-874,methyl decanoate,"InChI=1S/C11H22O2/c1-3-4-5-6-7-8-9-10-11(12)13-2/h3-10H2,1-2H3",YRHYCMZPEVDGFQ-UHFFFAOYSA-N,CCCCCCCCCC(=O)OC,-4.626748523,0.197001436,3,G5,186.295,3.3001,54.626,13,2,0,2,8,78,0,0,0,0,26.3,81.6637395,2.951096443,121.2586864
A-875,dipraseodymium(3+) ion tricarbonate,"InChI=1S/3CH2O3.2Pr/c3*2-1(3)4;;/h3*(H2,2,3,4);;/q;;;2*+3/p-6",XIRHLBQGEYXJKG-UHFFFAOYSA-H,[Pr+3].[Pr+3].[O-]C([O-])=O.[O-]C([O-])=O.[O-]C([O-])=O,-5.022027024,0.257679861,2,G3,461.84,-7.341,16.188,14,9,0,11,0,72,0,0,0,0,189.57,143.6407252,-2.70E-08,115.6067314
A-876,"1,1,3,3-tetrabutylurea","InChI=1S/C17H36N2O/c1-5-9-13-18(14-10-6-2)17(20)19(15-11-7-3)16-12-8-4/h5-16H2,1-4H3",SNDGLCYYBKJSOT-UHFFFAOYSA-N,CCCCN(CCCC)C(=O)N(CCCC)CCCC,-4.820595497,0,1,G1,284.488,4.9108,88.174,20,1,0,3,12,120,0,0,0,0,23.55,126.2595143,4.539321073,193.0298936
A-877,Cedryl methyl ether,"InChI=1S/C16H28O/c1-11-6-7-12-14(2,3)13-10-16(11,12)9-8-15(13,4)17-5/h11-13H,6-10H2,1-5H3/t11-,12+,13-,15-,16?/m1/s1",HRGPYCVTDOECMG-FETWPZQLSA-N,CO[C@]1(C)CCC23C[C@@H]1C(C)(C)[C@@H]2CC[C@H]3C,-4.74017718,0,1,G1,236.399,4.2639,70.857,17,1,0,1,1,98,0,3,3,3,9.23,106.3094345,2.043102888,334.4168802
A-883,cyclododecyl methyl ether,"InChI=1S/C13H26O/c1-14-13-11-9-7-5-3-2-4-6-8-10-12-13/h13H,2-12H2,1H3",WDSOYUINLRIGNV-UHFFFAOYSA-N,COC1CCCCCCCCCCC1,-4.683590383,0,1,G1,198.35,4.3061,61.584,14,1,0,1,1,84,0,1,1,1,9.23,89.22627048,2.166172108,110.4039704
A-884,"2-ethoxy-2,6,6-trimethyl-9-methylidenebicyclo[3.3.1]nonane","InChI=1S/C15H26O/c1-6-16-15(5)10-8-12-11(2)13(15)7-9-14(12,3)4/h12-13H,2,6-10H2,1,3-5H3",LUNAXRIJWWBQTE-UHFFFAOYSA-N,CCOC1(C)CCC2C(=C)C1CCC2(C)C,-4.734296245,0,1,G1,222.372,4.184,68.4,16,1,0,1,2,92,0,2,2,2,9.23,100.2607205,2.226283495,291.8100768
A-885,"N,N-diethyl[(diethylcarbamothioyl)disulfanyl]carbothioamide","InChI=1S/C10H20N2S4/c1-5-11(6-2)9(13)15-16-10(14)12(7-3)8-4/h5-8H2,1-4H3",AUZONCFQVSMFAP-UHFFFAOYSA-N,CCN(CC)C(=S)SSC(=S)N(CC)CC,-4.860377549,0.930188775,2,G2,296.552,3.6212,86.22,16,4,0,6,4,94,0,0,0,0,6.48,117.90714,4.041784406,200.8589191
A-886,"6-amino-2-(2,4-dimethylphenyl)-1H-benzo[de]isoquinoline-1,3(2H)-dione","InChI=1S/C20H16N2O2/c1-11-6-9-17(12(2)10-11)22-19(23)14-5-3-4-13-16(21)8-7-15(18(13)14)20(22)24/h3-10H,21H2,1-2H3",FQLZTPSAVDHUKS-UHFFFAOYSA-N,Cc1ccc(N2C(=O)c3cccc4c(N)ccc(C2=O)c34)c(C)c1,-4.891655533,0,1,G1,316.36,3.83944,95.4164,24,3,1,4,1,118,3,0,1,4,63.4,139.0468677,2.005101312,1014.98345
A-887,"(4-tert-butyl-2,6-dimethylphenyl)acetonitrile","InChI=1S/C14H19N/c1-10-8-12(14(3,4)5)9-11(2)13(10)6-7-15/h8-9H,6H2,1-5H3",ZUXNULGHCOXCFL-UHFFFAOYSA-N,Cc1cc(cc(C)c1CC#N)C(C)(C)C,-4.701811829,0,1,G1,201.313,3.66702,63.933,15,1,0,1,1,80,1,0,0,1,23.79,92.74351972,3.26923047,379.3224814
A-888,"3,9-bis[2,4-bis(2-phenylpropan-2-yl)phenoxy]-2,4,8,10-tetraoxa-3,9-diphosphaspiro[5.5]undecane","InChI=1S/C53H58O6P2/c1-49(2,39-21-13-9-14-22-39)43-29-31-47(45(33-43)51(5,6)41-25-17-11-18-26-41)58-60-54-35-53(36-55-60)37-56-61(57-38-53)59-48-32-30-44(50(3,4)40-23-15-10-16-24-40)34-46(48)52(7,8)42-27-19-12-20-28-42/h9-34H,35-38H2,1-8H3/t53?,60-,61-",WBWXVCMXGYSMQA-DISNZCRASA-N,CC(C)(c1ccccc1)c2ccc(O[P@]3OC[C@]4(CO3)CO[P@](OC4)Oc5ccc(cc5C(C)(C)c6ccccc6)C(C)(C)c7ccccc7)c(c2)C(C)(C)c8ccccc8,-7.231973426,0,1,G1,852.989,13.9818,248.501,61,6,0,8,12,316,6,2,2,8,55.38,365.1098915,0.970824146,2210.512973
A-889,Naphthalimide,"InChI=1S/C12H7NO2/c14-11-8-5-1-3-7-4-2-6-9(10(7)8)12(15)13-11/h1-6H,(H,13,14,15)",XJHABGPPCLHLLV-UHFFFAOYSA-N,O=C1NC(=O)c2cccc3cccc1c23,-4.692831503,0,1,G1,197.193,1.7234,55.7447,15,2,1,3,0,72,2,0,1,3,46.17,85.71002711,2.559690309,552.8436506
A-890,dibutylstannanone,"InChI=1S/2C4H9.O.Sn/c2*1-3-4-2;;/h2*1,3-4H2,2H3;;",JGFBRKRYDCGYKD-UHFFFAOYSA-N,CCCC[Sn](=O)CCCC,-4.794038183,0.097759905,2,G3,248.942,3.0086,45.8705,10,1,0,2,6,60,0,0,0,0,17.07,71.32403355,3.086348426,81.25838097
A-891,dibutyltin bis(2-ethylhexanoate),"InChI=1S/2C8H16O2.2C4H9.Sn/c2*1-3-5-6-7(4-2)8(9)10;2*1-3-4-2;/h2*7H,3-6H2,1-2H3,(H,9,10);2*1,3-4H2,2H3;/q;;;;+2/p-2",GPDWNEFHGANACG-UHFFFAOYSA-L,CCCC[Sn++]CCCC.CCCCC(CC)C([O-])=O.CCCCC(CC)C([O-])=O,-5.113404326,1.272034022,2,G2,519.355,5.0328,121.81,29,4,0,5,16,172,0,0,0,0,80.26,191.4010957,-3.50E-07,315.7723607
A-893,octahydro-2H-1-benzopyran-2-one,"InChI=1S/C9H14O2/c10-9-6-5-7-3-1-2-4-8(7)11-9/h7-8H,1-6H2",MSFLYJIWLHSQLG-UHFFFAOYSA-N,O=C1CCC2CCCCC2O1,-0.586560326,0,1,G1,154.209,1.8822,41.072,11,2,0,2,0,62,0,2,2,2,26.3,66.92219297,1.982567998,164.9456683
A-895,methyl 4-methylbenzoate,"InChI=1S/C9H10O2/c1-7-3-5-8(6-4-7)9(10)11-2/h3-6H,1-2H3",QSSJZLPUHJDYKF-UHFFFAOYSA-N,COC(=O)c1ccc(C)cc1,-2.576720352,0.02243331,3,G5,150.177,1.78162,42.5185,11,2,0,2,1,58,1,0,0,1,26.3,65.80129679,2.895348036,248.7701726
A-896,"2-benzyl-4,4,6-trimethyl-1,3-dioxane","InChI=1S/C14H20O2/c1-11-10-14(2,3)16-13(15-11)9-12-7-5-4-6-8-12/h4-8,11,13H,9-10H2,1-3H3",KSEFBQCEGMTNPD-UHFFFAOYSA-N,CC1CC(C)(C)OC(Cc2ccccc2)O1,-2.744685443,0,1,G1,220.312,3.1592,64.262,16,2,0,2,2,88,1,1,1,2,18.46,97.57219934,1.999223571,331.848395
A-898,"benzene-1,2-diamine","InChI=1S/C6H8N2/c7-5-3-1-2-4-6(5)8/h1-4H,7-8H2",GEYOCULIXLDCMW-UHFFFAOYSA-N,Nc1ccccc1N,-0.439609879,0.051633285,3,G5,108.144,0.851,35.2668,8,2,2,2,0,42,1,0,0,1,52.04,48.11118451,3.134861511,162.6383389
A-901,"1,2-benzisothiazol-3(2H)-one 1,1-dioxide","InChI=1S/C7H5NO3S/c9-7-5-3-1-2-4-6(5)12(10,11)8-7/h1-4H,(H,8,9)",CVHZOJJKTDOEJC-UHFFFAOYSA-N,O=C1N[S](=O)(=O)c2ccccc12,-1.671832414,0.059541371,6,G5,183.188,0.1187,41.094,12,3,1,5,0,62,1,0,1,2,63.24,69.26267426,2.828397697,449.4742222
A-904,sodium 4-amino-3-methylbenzene-1-sulfonate,"InChI=1S/C7H9NO3S.Na/c1-5-4-6(12(9,10)11)2-3-7(5)8;/h2-4H,8H2,1H3,(H,9,10,11);/q;+1/p-1",RVSNUNNCRYLEEM-UHFFFAOYSA-M,[Na+].Cc1cc(ccc1N)[S]([O-])(=O)=O,-1.729501225,0,1,G1,209.202,-2.51468,43.5546,13,4,1,6,1,66,1,0,0,1,83.22,99.17827156,1.44E-06,402.1987237
A-906,"3,7-dimethyloctanenitrile","InChI=1S/C10H19N/c1-9(2)5-4-6-10(3)7-8-11/h9-10H,4-7H2,1-3H3",SAPMLSXAXRULJB-UHFFFAOYSA-N,CC(C)CCCC(C)CC#N,-3.587759138,0,1,G1,153.269,3.36248,48.083,11,1,0,1,5,64,0,0,0,0,23.79,70.41630974,3.183499102,121.3246919
A-907,calcium molybdate,InChI=1S/Ca.Mo.4O/q+2;;;;2*-1,BIOOACNPATUQFW-UHFFFAOYSA-N,[Ca++].[O-][Mo]([O-])(=O)=O,-3.703694345,0.165920358,2,G3,200.014,-2.9989,7.127,6,4,0,6,0,32,0,0,0,0,80.26,67.88673506,0,90.71649287
A-908,1-[3-(2-oxoazepane-1-carbonyl)benzoyl]azepan-2-one,"InChI=1S/C20H24N2O4/c23-17-10-3-1-5-12-21(17)19(25)15-8-7-9-16(14-15)20(26)22-13-6-2-4-11-18(22)24/h7-9,14H,1-6,10-13H2",HXZRLUTUNSQNCG-UHFFFAOYSA-N,O=C1CCCCCN1C(=O)c2cccc(c2)C(=O)N3CCCCCC3=O,-3.958346195,0,1,G1,356.422,2.7722,95.465,26,4,0,6,2,138,1,2,2,3,74.76,152.6946862,1.805323134,671.0262957
A-909,"6,10-dimethylundeca-5,9-dien-2-one","InChI=1S/C13H22O/c1-11(2)7-5-8-12(3)9-6-10-13(4)14/h7,9H,5-6,8,10H2,1-4H3/b12-9+",HNZUNIKWNYHEJJ-FMIVXFBMSA-N,CC(C)=CCC\C(C)=C\CCC(C)=O,-3.697448425,0.321643949,2,G3,194.318,4.0483,62.337,14,1,0,1,6,80,0,0,0,0,17.07,87.90087244,3.670448527,229.6201179
A-914,prop-2-en-1-yl hexanoate,"InChI=1S/C9H16O2/c1-3-5-6-7-9(10)11-8-4-2/h4H,2-3,5-8H2,1H3",RCSBILYQLVXLJG-UHFFFAOYSA-N,CCCCCC(=O)OCC=C,-2.610551759,0.15546314,3,G5,156.225,2.2959,45.298,11,2,0,2,6,64,0,0,0,0,26.3,68.24425224,3.151008353,118.7311407
A-916,"sodium 2-amino-4,6-dinitrophenolate","InChI=1S/C6H5N3O5.Na/c7-4-1-3(8(11)12)2-5(6(4)10)9(13)14;/h1-2,10H,7H2;/q;+1/p-1",UENNEPPWFZYINW-UHFFFAOYSA-M,[Na+].Nc1cc(cc(c1[O-])[N+]([O-])=O)[N+]([O-])=O,-1.764813003,0,1,G1,221.104,-2.8372,43.6092,15,6,1,9,2,74,1,0,0,1,135.36,105.2848786,1.96E-06,421.4735477
A-917,4-chloro-1-(4-fluorophenyl)butan-1-one,"InChI=1S/C10H10ClFO/c11-7-1-2-10(13)8-3-5-9(12)6-4-8/h3-6H,1-2,7H2",HXAOUYGZEOZTJO-UHFFFAOYSA-N,Fc1ccc(cc1)C(=O)CCCCl,-2.722633923,0,1,G1,200.64,3.0274,50.6845,13,1,0,3,4,70,1,0,0,1,17.07,81.52149531,2.611171251,281.4811493
A-922,tri(propan-2-yl)silyl prop-2-enoate,"InChI=1S/C12H24O2Si/c1-8-12(13)14-15(9(2)3,10(4)5)11(6)7/h8-11H,1H2,2-7H3",PQSIXYSSKXAOFE-UHFFFAOYSA-N,CC(C)[Si](OC(=O)C=C)(C(C)C)C(C)C,-4.943737963,0,1,G1,228.408,3.8911,67.337,15,2,0,3,5,88,0,0,0,0,26.3,94.84339436,5.132522352,210.0021809
A-924,diisopropyl succinate,"InChI=1S/C10H18O4/c1-7(2)13-9(11)5-6-10(12)14-8(3)4/h7-8H,5-6H2,1-4H3",YPLYFEUBZLLLIY-UHFFFAOYSA-N,CC(C)OC(=O)CCC(=O)OC(C)C,-1.729316846,0,1,G1,202.25,1.6698,51.69,14,4,0,4,5,82,0,0,0,0,52.6,84.57386472,3.613952246,174.2986792
A-926,strontium(2+) ion 3-hydroxy-4-[(E)-2-(4-methyl-2-sulfonatophenyl)diazen-1-yl]naphthalene-2-carboxylate,"InChI=1S/C18H14N2O6S.Sr/c1-10-6-7-14(15(8-10)27(24,25)26)19-20-16-12-5-3-2-4-11(12)9-13(17(16)21)18(22)23;/h2-9,19H,1H3,(H,22,23)(H,24,25,26);/q;+2/p-2/b20-16-;",XUCZYOLXABAZRV-LRZQPWDCSA-L,[Sr++].Cc1ccc(N\N=C\2C(=O)C(=Cc3ccccc23)C([O-])=O)c(c1)[S]([O-])(=O)=O,-4.105730153,0,1,G1,471.989,0.05052,99.4889,28,8,1,10,4,138,2,0,1,3,138.79,197.5319463,2.80E-06,1138.514875
A-927,"8-[(4-aminophenyl)diazenyl]-7-hydroxy-N,N,N-trimethylnaphthalen-2-aminium chloride","InChI=1S/C19H20N4O.ClH/c1-23(2,3)16-10-4-13-5-11-18(24)19(17(13)12-16)22-21-15-8-6-14(20)7-9-15;/h4-12H,1-3H3,(H2-,20,21,22,24);1H",UXEAWNJALIUYRH-UHFFFAOYSA-N,[Cl-].C[N+](C)(C)c1ccc2ccc(O)c(N=Nc3ccc(N)cc3)c2c1,-1.980785388,0,1,G1,356.857,1.7437,100.2092,25,4,2,6,3,130,3,0,0,3,70.97,152.9687889,2.25E-06,915.0956774
A-929,trifluoroacetamide,"InChI=1S/C2H2F3NO/c3-2(4,5)1(6)7/h(H2,6,7)",NRKYWOKHZRQRJR-UHFFFAOYSA-N,NC(=O)C(F)(F)F,-1.485022741,0,1,G1,113.038,0.034,15.2494,7,1,1,5,0,42,0,0,0,0,43.09,37.10221215,3.791118417,85.42592197
A-930,4-(2-methylbutan-2-yl)cyclohexan-1-one,"InChI=1S/C11H20O/c1-4-11(2,3)9-5-7-10(12)8-6-9/h9H,4-8H2,1-3H3",DCSKAMGZSIRJAQ-UHFFFAOYSA-N,CCC(C)(C)C1CCC(=O)CC1,-2.656892778,0,1,G1,168.28,3.1819,51.037,12,1,0,1,2,70,0,1,1,1,17.07,75.54436312,2.488369389,159.842926
A-932,4-methanesulfonyl-1-methyl-2-nitrobenzene,"InChI=1S/C8H9NO4S/c1-6-3-4-7(14(2,12)13)5-8(6)9(10)11/h3-5H,1-2H3",OXBDLEXAVKAJFD-UHFFFAOYSA-N,Cc1ccc(cc1[N+]([O-])=O)[S](C)(=O)=O,-2.764701082,0,1,G1,215.23,1.30672,50.9432,14,4,0,6,2,76,1,0,0,1,77.28,81.43966145,3.416533376,478.1146885
A-935,methyl non-2-ynoate,"InChI=1S/C10H16O2/c1-3-4-5-6-7-8-9-10(11)12-2/h3-7H2,1-2H3",NTLJTUMJJWVCTL-UHFFFAOYSA-N,CCCCCCC#CC(=O)OC,-3.651887666,0,1,G1,168.236,2.1332,48.551,12,2,0,2,4,68,0,0,0,0,26.3,74.29802278,3.268973153,174.0129383
A-936,decan-1-ol,"InChI=1S/C10H22O/c1-2-3-4-5-6-7-8-9-10-11/h11H,2-10H2,1H3",MWKFXSUHUHTGQN-UHFFFAOYSA-N,CCCCCCCCCCO,-3.631238036,0.406681305,4,G5,158.285,3.1194,49.6958,11,1,1,1,8,68,0,0,0,0,20.23,70.81796381,2.690915527,53.89311688
A-939,triphenylphosphine oxide,"InChI=1S/C18H15OP/c19-20(16-10-4-1-5-11-16,17-12-6-2-7-13-17)18-14-8-3-9-15-18/h1-15H",FIQMHBFVRAXMOP-UHFFFAOYSA-N,O=[P](c1ccccc1)(c2ccccc2)c3ccccc3,-2.877472795,0,1,G1,278.291,3.326,85.8345,20,1,0,2,3,98,3,0,0,3,17.07,118.8351914,2.272149039,617.7209196
A-940,"2-chloro-1,4-dimethoxybenzene","InChI=1S/C8H9ClO2/c1-10-6-3-4-8(11-2)7(9)5-6/h3-5H,1-2H3",QMXZSRVFIWACJH-UHFFFAOYSA-N,COc1ccc(OC)c(Cl)c1,-2.672402404,0,1,G1,172.611,2.3572,44.556,11,2,0,3,2,60,1,0,0,1,18.46,70.69164403,2.992962952,247.8474159
A-944,2-(2-naphthyloxy)ethanol,"InChI=1S/C12H12O2/c13-7-8-14-12-6-5-10-3-1-2-4-11(10)9-12/h1-6,9,13H,7-8H2",BQPBZDSDFCDSAO-UHFFFAOYSA-N,OCCOc1ccc2ccccc2c1,-2.71429469,0,1,G1,188.226,2.2109,56.5288,14,2,1,2,3,72,2,0,0,2,29.46,82.75073086,2.315209942,423.3461726
A-950,butoxybenzene,"InChI=1S/C10H14O/c1-2-3-9-11-10-7-5-4-6-8-10/h4-8H,2-3,9H2,1H3",YFNONBGXNFCTMM-UHFFFAOYSA-N,CCCCOc1ccccc1,-3.613249563,0,1,G1,150.221,2.8655,46.845,11,1,0,1,4,60,1,0,0,1,9.23,68.00471681,2.275801287,181.3240823
A-951,2-[2-(benzoyloxy)ethoxy]ethyl benzoate,"InChI=1S/C18H18O5/c19-17(15-7-3-1-4-8-15)22-13-11-21-12-14-23-18(20)16-9-5-2-6-10-16/h1-10H,11-14H2",NXQMCAOPTPLPRL-UHFFFAOYSA-N,O=C(OCCOCCOC(=O)c1ccccc1)c2ccccc2,-3.937488879,0.018444614,4,G5,314.337,2.717,84.268,23,5,0,5,8,120,2,0,0,2,61.83,134.3418299,1.529201718,554.3237759
A-953,"(Z)-N-9-octadecenylpropane-1,3-diamine","InChI=1S/C21H44N2/c1-2-3-4-5-6-7-8-9-10-11-12-13-14-15-16-17-20-23-21-18-19-22/h9-10,23H,2-8,11-22H2,1H3/b10-9-",TUFJPPAQOXUHRI-KTKRTIGZSA-N,CCCCCCCC\C=C/CCCCCCCCNCCCN,-3.955042001,0,1,G1,324.597,5.9623,105.9931,23,2,2,2,19,138,0,0,0,0,38.05,146.2382432,3.02306934,225.8814591
A-954,"1,2,4-trichlorobenzene",InChI=1S/C6H3Cl3/c7-4-1-2-5(8)6(9)3-4/h1-3H,PBKONEOXTCPAFI-UHFFFAOYSA-N,Clc1ccc(Cl)c(Cl)c1,-3.702452078,0.124041556,8,G5,181.449,3.6468,41.472,9,0,0,3,0,48,1,0,0,1,0,68.3412018,3.17167803,219.5429995
A-959,"[3-methyl-4-(2,2,2-trifluoroethoxy)pyridin-2-yl]methanol","InChI=1S/C9H10F3NO2/c1-6-7(4-14)13-3-2-8(6)15-5-9(10,11)12/h2-3,14H,4-5H2,1H3",GNILTGRCVCMPFJ-UHFFFAOYSA-N,Cc1c(CO)nccc1OCC(F)(F)F,-1.792073711,0,1,G1,221.178,1.82342,46.4468,15,3,1,6,3,84,1,0,0,1,42.35,84.51520475,2.775316401,338.6196086
A-960,methoxymethane,InChI=1S/C2H6O/c1-3-2/h1-2H3,LCGLNKUTAGEVQW-UHFFFAOYSA-N,COC,0.88436592,0.444404931,2,G3,46.069,0.2626,12.933,3,1,0,1,0,20,0,0,0,0,9.23,20.21773837,1.632993162,2.754887502
A-961,"(2E)-3-(3,4,5-trimethoxyphenyl)prop-2-enoic acid","InChI=1S/C12H14O5/c1-15-9-6-8(4-5-11(13)14)7-10(16-2)12(9)17-3/h4-7H,1-3H3,(H,13,14)/b5-4+",YTFVRYKNXDADBI-SNAWJCMRSA-N,COc1cc(\C=C\C(O)=O)cc(OC)c1OC,-2.830470194,0,1,G1,238.239,1.8102,62.7678,17,4,1,5,5,92,1,0,0,1,64.99,99.22784431,3.217915676,411.5172831
A-962,barium(2+) ion diphosphinate,"InChI=1S/Ba.2HO2P/c;2*1-3-2/h;2*(H,1,2)/q+2;;/p-2",OWESJVSXFRLVFC-UHFFFAOYSA-L,[Ba++].[O-]P=O.[O-]P=O,0.123663372,0,1,G1,263.272,-1.274,20.967,7,4,0,7,0,36,0,0,0,0,80.26,83.95770813,-4.00E-08,30.67103446
A-967,"1,4-dibromobutane",InChI=1S/C4H8Br2/c5-3-1-2-4-6/h1-4H2,ULTHEAFYOOPTTB-UHFFFAOYSA-N,BrCCCCBr,-2.790216782,0,1,G1,215.916,2.5564,36.822,6,0,0,2,3,38,0,0,0,0,0,55.56917258,2.339092315,17.509775
A-969,"1,2,3,4-tetrahydronaphthalene","InChI=1S/C10H12/c1-2-6-10-8-4-3-7-9(10)5-1/h1-2,5-6H,3-4,7-8H2",CXWXQJXEFPUFDZ-UHFFFAOYSA-N,C1CCc2ccccc2C1,-3.567368139,0.352069764,5,G5,132.206,2.5654,43.084,10,0,0,0,0,52,1,0,1,2,0,61.88534042,2.414292094,200.234849
A-971,"1,6-dibutyl hexanedioate","InChI=1S/C14H26O4/c1-3-5-11-17-13(15)9-7-8-10-14(16)18-12-6-4-2/h3-12H2,1-2H3",XTJFFFGAUHQWII-UHFFFAOYSA-N,CCCCOC(=O)CCCCC(=O)OCCCC,-3.86815387,0,1,G1,258.358,3.2334,70.202,18,4,0,4,11,106,0,0,0,0,52.6,110.0336332,3.323319424,201.8338812
A-972,"ethyl phenyl(2,4,6-trimethylbenzoyl)phosphinate","InChI=1S/C18H21O3P/c1-5-21-22(20,16-9-7-6-8-10-16)18(19)17-14(3)11-13(2)12-15(17)4/h6-12H,5H2,1-4H3",ZMDDERVSCYEKPQ-UHFFFAOYSA-N,CCO[P](=O)(C(=O)c1c(C)cc(C)cc1C)c2ccccc2,-3.956081947,0,1,G1,316.337,4.39216,90.292,22,3,0,4,5,116,2,0,0,2,43.37,131.3294875,2.601020109,712.2475302
A-973,2-tert-butyl-5-methylphenol,"InChI=1S/C11H16O/c1-8-5-6-9(10(12)7-8)11(2,3)4/h5-7,12H,1-4H3",XOUQAVYLRNOXDO-UHFFFAOYSA-N,Cc1ccc(c(O)c1)C(C)(C)C,-2.672674663,0,1,G1,164.248,2.99812,51.5438,12,1,1,1,0,66,1,0,0,1,20.23,74.05034744,3.189211512,281.5458536
A-974,dimethyl 2-nitroterephthalate,"InChI=1S/C10H9NO6/c1-16-9(12)6-3-4-7(10(13)17-2)8(5-6)11(14)15/h3-5H,1-2H3",PAYWCKGMOYQZAW-UHFFFAOYSA-N,COC(=O)c1ccc(C(=O)OC)c(c1)[N+]([O-])=O,-2.835904882,0,1,G1,239.183,1.168,55.7754,17,6,0,7,3,90,1,0,0,1,95.74,96.09428196,3.315323157,481.6845088
A-975,Cobaltous acetate,"InChI=1S/2C2H4O2.Co/c2*1-2(3)4;/h2*1H3,(H,3,4);/q;;+2/p-2",QAHREYKOYSIQPH-UHFFFAOYSA-L,[Co++].CC([O-])=O.CC([O-])=O,0.29360437,0.00733667,2,G3,177.021,-2.4901,21.362,9,4,0,5,0,55,0,0,0,0,80.26,63.07145371,-7.20E-08,70.56842503
A-976,6-(prop-2-enoyloxy)hexyl prop-2-enoate,"InChI=1S/C12H18O4/c1-3-11(13)15-9-7-5-6-8-10-16-12(14)4-2/h3-4H,1-2,5-10H2",FIHBHSQYSYVZQE-UHFFFAOYSA-N,C=CC(=O)OCCCCCCOC(=O)C=C,-2.819336696,0.01050419,2,G3,226.272,2.0052,60.78,16,4,0,4,9,90,0,0,0,0,52.6,95.92454288,3.153077085,219.4033153
A-978,"N,N-dimethyldecanamide","InChI=1S/C12H25NO/c1-4-5-6-7-8-9-10-11-12(14)13(2)3/h4-11H2,1-3H3",HNXNKTMIVROLTK-UHFFFAOYSA-N,CCCCCCCCCC(=O)N(C)C,-2.76811118,0,1,G1,199.338,3.2153,61.304,14,1,0,2,8,84,0,0,0,0,20.31,88.67497006,3.095845581,143.2571555
A-982,4-[(E)-2-phenyldiazen-1-yl]aniline,"InChI=1S/C12H11N3/c13-10-6-8-12(9-7-10)15-14-11-4-2-1-3-5-11/h1-9H,13H2",QPQKUYVSJWQSDY-UHFFFAOYSA-N,Nc1ccc(cc1)N=Nc2ccccc2,-3.759703076,0.280166719,3,G5,197.241,3.6842,61.4724,15,3,1,3,2,74,2,0,0,2,50.74,88.27516587,2.152989282,446.0532649
A-986,"(2,2,3-trimethylcyclopent-3-en-1-yl)acetonitrile","InChI=1S/C10H15N/c1-8-4-5-9(6-7-11)10(8,2)3/h4,9H,5-6H2,1-3H3",YYJOTFQPYNOYAB-UHFFFAOYSA-N,CC1=CCC(CC#N)C1(C)C,-2.647537233,0,1,G1,149.237,2.89248,45.875,11,1,0,1,1,60,0,0,1,1,23.79,68.72087555,2.715406493,217.5175013
A-988,2-tert-butyl-4-methylphenol,"InChI=1S/C11H16O/c1-8-5-6-10(12)9(7-8)11(2,3)4/h5-7,12H,1-4H3",IKEHOXWJQXIQAG-UHFFFAOYSA-N,Cc1ccc(O)c(c1)C(C)(C)C,-2.691753623,0,1,G1,164.248,2.99812,51.5438,12,1,1,1,0,66,1,0,0,1,20.23,74.05034744,3.231425013,281.5458536
A-989,"N,N,N-trimethylanilinium chloride","InChI=1S/C9H14N.ClH/c1-10(2,3)9-7-5-4-6-8-9;/h4-8H,1-3H3;1H/q+1;/p-1",MQAYPFVXSPHGJM-UHFFFAOYSA-M,[Cl-].C[N+](C)(C)c1ccccc1,0.287747296,0,1,G1,171.671,-1.1127,46.008,11,0,0,2,1,62,1,0,0,1,0,74.64912787,1.00E-06,200.5527598
A-990,"1,3,3-trimethyl-2-oxabicyclo[2.2.2]octane 2-(4-methylcyclohex-3-en-1-yl)propan-2-yl acetate","InChI=1S/C12H20O2.C10H18O/c1-9-5-7-11(8-6-9)12(3,4)14-10(2)13;1-9(2)8-4-6-10(3,11-9)7-5-8/h5,11H,6-8H2,1-4H3;8H,4-7H2,1-3H3",GBIJCMYLVWYAKU-UHFFFAOYSA-N,CC(=O)OC(C)(C)C1CCC(=CC1)C.CC23CCC(CC2)C(C)(C)O3,-3.021359064,0,1,G1,350.543,5.8186,102.47,25,3,0,3,2,144,0,3,4,4,35.53,154.0903826,1.85E-07,504.6104862
A-991,"tris(prop-2-en-1-yloxy)-1,3,5-triazine","InChI=1S/C12H15N3O3/c1-4-7-16-10-13-11(17-8-5-2)15-12(14-10)18-9-6-3/h4-6H,1-3,7-9H2",BJELTSYBAHKXRW-UHFFFAOYSA-N,C=CCOc1nc(OCC=C)nc(OCC=C)n1,-2.87422578,0.526719677,5,G4,249.27,1.566,66.903,18,6,0,6,9,96,1,0,0,1,66.36,105.6466527,2.829276282,346.7764449
A-993,valeric acid,"InChI=1S/C5H10O2/c1-2-3-4-5(6)7/h2-4H2,1H3,(H,6,7)",NQPDZGIKBAWPEJ-UHFFFAOYSA-N,CCCCC(O)=O,-0.490652149,0.088349088,5,G5,102.133,1.2612,27.1608,7,1,1,2,3,42,0,0,0,0,37.3,43.15477534,2.821938937,59.10049401
A-994,3-methyl-4-phenylbutan-2-ol,"InChI=1S/C11H16O/c1-9(10(2)12)8-11-6-4-3-5-7-11/h3-7,9-10,12H,8H2,1-2H3",VSIXJPFQJMODCS-UHFFFAOYSA-N,CC(O)C(C)Cc1ccccc1,-1.69697299,0,1,G1,164.248,2.246,50.9908,12,1,1,1,3,66,1,0,0,1,20.23,74.05034744,2.526676008,215.7055387
A-995,"1,3-diethyl 2-butylpropanedioate","InChI=1S/C11H20O4/c1-4-7-8-9(10(12)14-5-2)11(13)15-6-3/h9H,4-8H2,1-3H3",RPNFNBGRHCUORR-UHFFFAOYSA-N,CCCCC(C(=O)OCC)C(=O)OCC,-2.816496397,0,1,G1,216.277,1.919,56.281,15,4,0,4,7,88,0,0,0,0,52.6,90.93880683,4.278065309,182.7646023
A-996,"2-(2-undecyl-4,5-dihydro-1H-imidazol-1-yl)ethanol","InChI=1S/C16H32N2O/c1-2-3-4-5-6-7-8-9-10-11-16-17-12-13-18(16)14-15-19/h19H,2-15H2,1H3",QNDGQRJVVZJMJO-UHFFFAOYSA-N,CCCCCCCCCCCC1=NCCN1CCO,-3.898655621,0,1,G1,268.445,3.6137,82.8048,19,3,1,3,12,112,0,0,1,1,35.83,118.6569415,1.902651221,240.9034322
A-997,1-chloro-4-(trifluoromethyl)benzene,"InChI=1S/C7H4ClF3/c8-6-3-1-5(2-4-6)7(9,10)11/h1-4H",QULYNCCPRWKEMF-UHFFFAOYSA-N,FC(F)(F)c1ccc(Cl)cc1,-3.727695225,0,1,G1,180.556,3.3588,36.454,11,0,0,4,0,60,1,0,0,1,0,66.59621767,2.993754788,236.8577533
A-998,4-(4-hydroxyphenyl)phenol,"InChI=1S/C12H10O2/c13-11-5-1-9(2-6-11)10-3-7-12(14)8-4-10/h1-8,13-14H",VCCBEIPGXKNHFW-UHFFFAOYSA-N,Oc1ccc(cc1)c2ccc(O)cc2,-3.742373099,0,1,G1,186.21,2.7648,55.2076,14,2,2,2,1,70,2,0,0,2,40.46,82.07696483,2.39650904,371.5796467