ID,Name,InChI,InChIKey,SMILES,Solubility,SD,Ocurrences,Group,MolWt,MolLogP,MolMR,HeavyAtomCount,NumHAcceptors,NumHDonors,NumHeteroatoms,NumRotatableBonds,NumValenceElectrons,NumAromaticRings,NumSaturatedRings,NumAliphaticRings,RingCount,TPSA,LabuteASA,BalabanJ,BertzCT
A-1204,"Phosphorodithioic acid, mixed O,O-bis(1,3-dimethylbutyl and iso-Pr) esters, zinc salts","InChI=1S/2C9H21O2PS2.Zn/c2*1-7(2)6-9(5)11-12(13,14)10-8(3)4;/h2*7-9H,6H2,1-5H3,(H,13,14);/q;;+2/p-2",ZLJYMIJYVMPKAH-UHFFFAOYSA-L,[Zn++].CC(C)CC(C)O[P]([S-])(=S)OC(C)C.CC(C)CC(C)O[P]([S-])(=S)OC(C)C,-2.318974913,0,1,G1,576.12,7.2655,135.746,29,8,0,11,12,172,0,0,0,0,36.92,213.6804253,-4.51E-07,464.2527813
A-1205,1-chloro-3-nitrobenzene,InChI=1S/C6H4ClNO2/c7-5-2-1-3-6(4-5)8(9)10/h1-4H,KMAQZIILEGKYQZ-UHFFFAOYSA-N,[O-][N+](=O)c1cccc(Cl)c1,-2.7612723,0.07745098,2,G3,157.556,2.2482,38.1064,10,2,0,4,1,52,1,0,0,1,43.14,62.38764507,3.069899266,261.6796584
A-1206,1-(2-naphthyl)ethanone,"InChI=1S/C12H10O/c1-9(13)11-7-6-10-4-2-3-5-12(10)8-11/h2-8H,1H3",XSAYZAUNJMRRIR-UHFFFAOYSA-N,CC(=O)c1ccc2ccccc2c1,-2.796418719,0,1,G1,170.211,3.0424,53.9525,13,1,0,1,1,64,2,0,0,2,17.07,77.00447398,2.686034664,457.3860595
A-1207,"disodium 4-amino-6-{2-[4-({4-[2-(2,4-diaminophenyl)diazen-1-yl]phenyl}sulfamoyl)phenyl]diazen-1-yl}-5-hydroxy-3-[2-(4-nitrophenyl)diazen-1-yl]naphthalene-2,7-disulfonate","InChI=1S/C34H27N11O11S3.2Na/c35-19-1-14-27(26(36)17-19)41-38-20-2-4-23(5-3-20)44-57(49,50)25-12-8-22(9-13-25)40-43-33-29(59(54,55)56)16-18-15-28(58(51,52)53)32(31(37)30(18)34(33)46)42-39-21-6-10-24(11-7-21)45(47)48;;/h1-17,44,46H,35-37H2,(H,51,52,53)(H,54,55,56);;/q;2*+1/p-2",UMXKOPCQCFDBHS-UHFFFAOYSA-L,[Na+].[Na+].Nc1ccc(N=Nc2ccc(N[S](=O)(=O)c3ccc(cc3)N=Nc4c(O)c5c(N)c(N=Nc6ccc(cc6)[N+]([O-])=O)c(cc5cc4[S]([O-])(=O)=O)[S]([O-])(=O)=O)cc2)c(N)c1,-0.525678621,0,1,G1,905.821,1.0634,210.5353,61,20,5,27,12,302,6,0,0,6,376.16,389.5433689,4.10E-06,3103.841299
A-1209,"1,2-dichloropropane","InChI=1S/C3H6Cl2/c1-3(5)2-4/h3H,2H2,1H3",KNKRKFALVUDBJE-UHFFFAOYSA-N,CC(Cl)CCl,-1.621664713,0.007897134,2,G3,112.987,1.8525,26.035,5,0,0,2,1,32,0,0,0,0,0,42.07566771,2.539538861,18.85475297
A-1211,N-ethylaniline,"InChI=1S/C8H11N/c1-2-9-8-6-4-3-5-7-8/h3-7,9H,2H2,1H3",OJGMBLNIHDZDGS-UHFFFAOYSA-N,CCNc1ccccc1,-1.652077936,0.024673361,2,G3,121.183,2.1184,40.6057,9,1,1,1,2,48,1,0,0,1,12.03,55.71114953,2.61489994,157.4784208
A-1212,"1,1'-oxybis(3-methylbutane)","InChI=1S/C10H22O/c1-9(2)5-7-11-8-6-10(3)4/h9-10H,5-8H2,1-4H3",AQZGPSLYZOOYQP-UHFFFAOYSA-N,CC(C)CCOCCC(C)C,-3.760107067,0.430853533,2,G3,158.285,3.0952,49.729,11,1,0,1,6,68,0,0,0,0,9.23,71.13727529,2.909205095,66.94196247
A-1213,sodium 2-({2-amino-8-hydroxy-6-[(2-methylphenyl)sulfamoyl]-1-naphthyl}diazenyl)-5-[(chloroacetyl)amino]benzenesulfonate,"InChI=1S/C25H22ClN5O7S2.Na/c1-31(17-5-3-2-4-6-17)39(34,35)18-11-15-7-9-19(27)25(24(15)21(32)13-18)30-29-20-10-8-16(28-23(33)14-26)12-22(20)40(36,37)38;/h2-13,27,29-30H,14H2,1H3,(H,28,33)(H,36,37,38);/q;+1/p-1",NVRGYEUIJNZYKB-UHFFFAOYSA-M,[Na+].CN(c1ccccc1)[S](=O)(=O)C2=CC(=O)C3=C(NNc4ccc(NC(=O)CCl)cc4[S]([O-])(=O)=O)C(=N)C=CC3=C2,-4.35885707,0,1,G1,626.048,-0.60863,149.3438,41,10,4,16,9,208,2,0,2,4,188.66,262.9566996,4.62E-06,1770.095711
A-1214,"1,2-dichloro-4-methylbenzene","InChI=1S/C7H6Cl2/c1-5-2-3-6(8)7(9)4-5/h2-4H,1H3",WYUIWKFIFOJVKW-UHFFFAOYSA-N,Cc1ccc(Cl)c(Cl)c1,-3.775545726,0.008177137,2,G3,161.031,3.30182,41.199,9,0,0,2,0,48,1,0,0,1,0,64.40287769,3.17167803,218.1561776
A-1215,"4-amino-2,5-dimethoxy-N-phenylbenzenesulfonamide","InChI=1S/C14H16N2O4S/c1-19-12-9-14(13(20-2)8-11(12)15)21(17,18)16-10-6-4-3-5-7-10/h3-9,16H,15H2,1-2H3",NFYQAEPHDGXJSY-UHFFFAOYSA-N,COc1cc(c(OC)cc1N)[S](=O)(=O)Nc2ccccc2,-4.057692864,0,1,G1,308.359,2.0868,81.2089,21,5,2,7,5,112,2,0,0,2,90.65,123.0960008,2.48341501,730.1392691
A-1219,4-hydroxy-3-(3-oxo-1-phenylbutyl)-2H-chromen-2-one,"InChI=1S/C19H16O4/c1-12(20)11-15(13-7-3-2-4-8-13)17-18(21)14-9-5-6-10-16(14)23-19(17)22/h2-10,15,22H,11H2,1H3",QTXVAVXCBMYBJW-UHFFFAOYSA-N,CC(=O)CC(c1ccccc1)C2=C(O)Oc3ccccc3C2=O,-3.062508747,1.589309613,4,G4,308.333,3.6096,87.7318,23,4,1,4,4,116,3,0,0,3,67.51,132.5520251,2.258625324,909.5509727
A-1220,"(4-(4-aminophenyl)(4-iminocyclohexa-2,5-dienylidene)methyl)-2-methylaniline hydrochloride","InChI=1S/C20H19N3.ClH/c1-13-12-16(6-11-19(13)23)20(14-2-7-17(21)8-3-14)15-4-9-18(22)10-5-15;/h2-12,23H,21-22H2,1H3;1H",AXDJCCTWPBKUKL-UHFFFAOYSA-N,[H+].[Cl-].CC1=CC(C=CC1=N)=C(c2ccc(N)cc2)c3ccc(N)cc3,-2.105483191,0.25245193,3,G5,337.854,1.30527,99.4665,24,3,3,4,2,122,2,0,1,3,75.89,149.336418,1.56E-06,800.0149337
A-1222,tris(2-methylpropyl) phosphate,"InChI=1S/C12H27O4P/c1-10(2)7-14-17(13,15-8-11(3)4)16-9-12(5)6/h10-12H,7-9H2,1-6H3",HRKAMJBPFPHCSD-UHFFFAOYSA-N,CC(C)CO[P](=O)(OCC(C)C)OCC(C)C,-3.002154647,0,1,G1,266.318,4.1123,69.9765,17,4,0,5,9,104,0,0,0,0,44.76,105.6438606,4.291086823,200.6210278
A-1225,methyl 2-methylbenzoate,"InChI=1S/C9H10O2/c1-7-5-3-4-6-8(7)9(10)11-2/h3-6H,1-2H3",WVWZECQNFWFVFW-UHFFFAOYSA-N,COC(=O)c1ccccc1C,-1.756647676,0,1,G1,150.177,1.78162,42.5185,11,2,0,2,1,58,1,0,0,1,26.3,65.80129679,3.032662156,266.0201726
A-1226,2-methylprop-1-ene,"InChI=1S/C4H8/c1-4(2)3/h1H2,2-3H3",VQTUBCCKSQIDNK-UHFFFAOYSA-N,CC(C)=C,-2.32906904,0,1,G1,56.108,1.5824,20.488,4,0,0,0,0,24,0,0,0,0,0,27.14447434,2.803039488,23.01955001
A-1227,1-(acetyloxy)but-3-en-2-yl acetate,"InChI=1S/C8H12O4/c1-4-8(12-7(3)10)5-11-6(2)9/h4,8H,1,5H2,2-3H3/t8-/m0/s1",MWWXARALRVYLAE-QMMMGPOBSA-N,CC(=O)OC[C@@H](OC(C)=O)C=C,-0.817681412,0,1,G1,172.18,0.6672,42.384,12,4,0,4,4,68,0,0,0,0,52.6,71.15437746,3.748658078,185.4968818
A-1228,3-aminophenol,"InChI=1S/C6H7NO/c7-5-2-1-3-6(8)4-5/h1-4,8H,7H2",CWLKGDAVCFYWJK-UHFFFAOYSA-N,Nc1cccc(O)c1,-0.622962848,0.06143075,5,G5,109.128,0.9744,32.5192,8,2,2,2,0,42,1,0,0,1,46.25,47.56552757,3.077660438,168.3883389
A-1231,"2-[2-ethoxy-5-(4-ethylpiperazin-1-yl)sulfonylphenyl]-5-methyl-7-propyl-1H-imidazo[5,1-f][1,2,4]triazin-4-one","InChI=1S/C23H32N6O4S/c1-5-8-20-24-16(4)21-23(30)25-22(26-29(20)21)18-15-17(9-10-19(18)33-7-3)34(31,32)28-13-11-27(6-2)12-14-28/h9-10,15H,5-8,11-14H2,1-4H3,(H,25,26,30)",SECKRCOLJRRGGV-UHFFFAOYSA-N,CCCc1nc(C)c2n1NC(=NC2=O)c3cc(ccc3OCC)[S](=O)(=O)N4CCN(CC)CC4,-4.843867866,0,1,G1,488.614,2.07042,129.8175,34,8,1,11,8,184,3,1,1,4,112.9,199.16304,1.815923189,1339.479629
A-1232,(9E)-N-[3-(dimethylamino)propyl]octadec-9-enamide,"InChI=1S/C23H46N2O/c1-4-5-6-7-8-9-10-11-12-13-14-15-16-17-18-20-23(26)24-21-19-22-25(2)3/h11-12H,4-10,13-22H2,1-3H3,(H,24,26)/b12-11+",UCWYGNTYSWIDSW-VAWYXSNFSA-N,CCCCCCCC/C=C/CCCCCCCC(=O)NCCCN(C)C,-4.149259389,0.842698599,2,G2,366.634,6.0918,115.6327,26,2,1,3,19,154,0,0,0,0,32.34,163.5495925,3.205235088,326.1695077
A-1233,"1,3-dichloro-2-methylbenzene","InChI=1S/C7H6Cl2/c1-5-6(8)3-2-4-7(5)9/h2-4H,1H3",DMEDNTFWIHCBRK-UHFFFAOYSA-N,Cc1c(Cl)cccc1Cl,-3.791936142,0,1,G1,161.031,3.30182,41.199,9,0,0,2,0,48,1,0,0,1,0,64.40287769,3.247834734,197.9061776
A-1234,cyclododecanone,InChI=1S/C12H22O/c13-12-10-8-6-4-2-1-3-5-7-9-11-12/h1-11H2,SXVPOSFURRDKBO-UHFFFAOYSA-N,O=C1CCCCCCCCCCC1,-3.845829996,0.119119583,2,G3,182.307,3.8602,55.794,13,1,0,1,0,76,0,1,1,1,17.07,81.90930523,2.144560008,126.0599029
A-1235,"3,7-dimethyloct-6-en-1-yn-3-ol","InChI=1S/C10H16O/c1-5-10(4,11)8-6-7-9(2)3/h1,7,11H,6,8H2,2-4H3",YWTIDNZYLFTNQQ-UHFFFAOYSA-N,CC(C)=CCCC(C)(O)C#C,-1.772080431,0,1,G1,152.237,2.117,48.1218,11,1,1,1,3,62,0,0,0,0,20.23,69.12758617,3.736544776,177.5396831
A-1236,4-methyl-3-nitrobenzoic acid,"InChI=1S/C8H7NO4/c1-5-2-3-6(8(10)11)4-7(5)9(12)13/h2-4H,1H3,(H,10,11)",BBEWSMNRCUXQRF-UHFFFAOYSA-N,Cc1ccc(cc1[N+]([O-])=O)C(O)=O,-2.848098023,0,1,G1,181.147,1.60142,44.7927,13,3,1,5,2,68,1,0,0,1,80.44,73.77001892,3.267052212,372.406818
A-1237,3-amino-4-methoxybenzenesulfonic acid,"InChI=1S/C7H9NO4S/c1-12-7-3-2-5(4-6(7)8)13(9,10)11/h2-4H,8H2,1H3,(H,9,10,11)",FLIOATBXVNLPLK-UHFFFAOYSA-N,COc1ccc(cc1N)[S](O)(=O)=O,-0.899724345,0.543010335,2,G2,203.219,0.5241,47.221,13,4,2,6,2,72,1,0,0,1,89.62,75.87841717,3.258190873,412.5007608
A-1239,"(3,4-dihydroxyphenyl)-phenylmethanone","InChI=1S/C13H10O3/c14-11-7-6-10(8-12(11)15)13(16)9-4-2-1-3-5-9/h1-8,14-15H",ARWCZKJISXFBGI-UHFFFAOYSA-N,Oc1ccc(cc1O)C(=O)c2ccccc2,-2.92262005,0,1,G1,214.22,2.3288,59.6461,16,3,2,3,2,80,2,0,0,2,57.53,92.60342904,2.386000589,517.9558452
A-1240,"2-[(E)-2-{4-[ethyl(2-hydroxyethyl)amino]phenyl}diazen-1-yl]-6-methoxy-3-methyl-1,3-benzothiazol-3-ium acetate","InChI=1S/C19H23N4O2S.C2H4O2/c1-4-23(11-12-24)15-7-5-14(6-8-15)20-21-19-22(2)17-10-9-16(25-3)13-18(17)26-19;1-2(3)4/h5-10,13,24H,4,11-12H2,1-3H3;1H3,(H,3,4)/q+1;/p-1",BLZWSNCCDXVOPZ-UHFFFAOYSA-M,CCN(CCO)c1ccc(cc1)N=Nc2sc3cc(OC)ccc3[n+]2C.CC([O-])=O,-0.226272691,0,1,G1,430.53,2.7246,115.8248,30,8,1,9,7,160,3,0,0,3,101.43,179.235659,7.35E-07,998.1590516
A-1243,(4R)-4-methyl-2-propyloxan-4-yl acetate (4S)-4-methyl-2-propyloxan-4-yl acetate,"InChI=1S/2C11H20O3/c2*1-4-5-10-8-11(3,6-7-13-10)14-9(2)12/h2*10H,4-8H2,1-3H3/t2*10?,11-/m10/s1",TWUVPRFPARHRLV-URIZOGIISA-N,CCCC1C[C@](C)(CCO1)OC(C)=O.CCCC2C[C@@](C)(CCO2)OC(C)=O,-2.204723233,0,1,G1,400.556,4.5746,108.106,28,6,0,6,6,164,0,2,2,2,71.06,170.1744294,2.80E-07,445.4186496
A-1245,3-(aminomethyl)heptane,"InChI=1S/C8H19N/c1-3-5-6-8(4-2)7-9/h8H,3-7,9H2,1-2H3",LTHNHFOGQMKPOV-UHFFFAOYSA-N,CCCCC(CC)CN,-1.713480463,0,1,G1,129.247,2.1615,42.3604,9,1,1,1,5,56,0,0,0,0,26.02,58.63373653,3.092246195,48.52932501
A-1246,3-chloro-4-methylaniline,"InChI=1S/C7H8ClN/c1-5-2-3-6(9)4-7(5)8/h2-4H,9H2,1H3",RQKFYFNZSHWXAW-UHFFFAOYSA-N,Cc1ccc(N)cc1Cl,-1.753126312,0.012652933,2,G3,141.601,2.23062,40.6014,9,1,1,2,0,48,1,0,0,1,26.02,59.43950216,3.17167803,220.1561776
A-1247,"2-(2,4-dihydroxyphenyl)-3,5,7-trihydroxy-4H-chromen-4-one","InChI=1S/C15H10O7/c16-6-1-2-8(9(18)3-6)15-14(21)13(20)12-10(19)4-7(17)5-11(12)22-15/h1-5,16-19,21H",YXOLAZRVSSWPPT-UHFFFAOYSA-N,Oc1ccc(c(O)c1)C2=C(O)C(=O)c3c(O)cc(O)cc3O2,-3.082409058,0,1,G1,302.238,1.988,76.244,22,7,5,7,1,112,3,0,0,3,131.36,122.1076695,2.407728671,956.2426828
A-1252,"4-[1,1-bis(4-hydroxyphenyl)ethyl]phenol","InChI=1S/C20H18O3/c1-20(14-2-8-17(21)9-3-14,15-4-10-18(22)11-5-15)16-6-12-19(23)13-7-16/h2-13,21-23H,1H3",BRPSWMCDEYMRPE-UHFFFAOYSA-N,CC(c1ccc(O)cc1)(c2ccc(O)cc2)c3ccc(O)cc3,-4.086559757,0,1,G1,306.361,4.1577,89.8764,23,3,3,3,3,116,3,0,0,3,60.69,134.658177,2.214535429,676.8716935
A-1254,"2,4-dichloro-1-methylbenzene","InChI=1S/C7H6Cl2/c1-5-2-3-6(8)4-7(5)9/h2-4H,1H3",FUNUTBJJKQIVSY-UHFFFAOYSA-N,Cc1ccc(Cl)cc1Cl,-3.808969481,0.247425011,2,G3,161.031,3.30182,41.199,9,0,0,2,0,48,1,0,0,1,0,64.40287769,3.17167803,218.1561776
A-1255,"(4-methoxy-2,2-dimethyl-3a,4,6,6a-tetrahydrofuro[3,4-d][1,3]dioxol-6-yl)methyl 4-methylbenzenesulfonate","InChI=1S/C16H22O7S/c1-10-5-7-11(8-6-10)24(17,18)20-9-12-13-14(15(19-4)21-12)23-16(2,3)22-13/h5-8,12-15H,9H2,1-4H3",IAPMZKRZMYQZSW-UHFFFAOYSA-N,COC1OC(CO[S](=O)(=O)c2ccc(C)cc2)C3OC(C)(C)OC13,-4.156442533,0,1,G1,358.412,1.59172,83.8118,24,7,0,8,5,134,1,2,2,3,80.29,141.4712904,1.686881259,682.8824066
A-1256,1-methoxy-2-methylbenzene,"InChI=1S/C8H10O/c1-7-5-3-4-6-8(7)9-2/h3-6H,1-2H3",DTFKRVXLBCAIOZ-UHFFFAOYSA-N,COc1ccccc1C,-2.689083393,0,1,G1,122.167,2.00362,37.731,9,1,0,1,1,48,1,0,0,1,9.23,55.27483258,3.006524007,193.514053
A-1258,"(2,4-dichlorophenyl)acetic acid","InChI=1S/C8H6Cl2O2/c9-6-2-1-5(3-8(11)12)7(10)4-6/h1-2,4H,3H2,(H,11,12)",GXMWLJKTGBZMBH-UHFFFAOYSA-N,OC(=O)Cc1ccc(Cl)cc1Cl,-2.91914164,0.088159067,3,G5,205.04,2.6205,47.8018,12,1,1,4,2,64,1,0,0,1,37.3,79.72357565,2.934802125,309.926212
A-1259,2-(chloromethyl)oxirane; 4-[2-(4-hydroxyphenyl)propan-2-yl]phenol,"InChI=1S/C15H16O2.C3H5ClO/c1-15(2,11-3-7-13(16)8-4-11)12-5-9-14(17)10-6-12;4-1-3-2-5-3/h3-10,16-17H,1-2H3;3H,1-2H2",KUBDPQJOLOUJRM-UHFFFAOYSA-N,CC(C)(c1ccc(O)cc1)c2ccc(O)cc2.ClCC3CO3,-5.029134765,0.032750774,2,G3,320.816,4.0477,88.8016,22,3,2,4,3,118,2,1,1,3,52.99,135.683429,2.99E-07,539.2342629
A-1261,Zirconium propionate,"InChI=1S/C3H6O2.Zr/c1-2-3(4)5;/h2H2,1H3,(H,4,5);/q;+4/p-1",TVCBSVKTTHLKQC-UHFFFAOYSA-M,[Zr+4].CCC([O-])=O,-2.823279191,0.314458581,2,G3,164.295,-0.8562,15.298,6,2,0,3,1,30,0,0,0,0,40.13,55.6731487,0,44.05785641
A-1263,4-chlorobenzonitrile,InChI=1S/C7H4ClN/c8-7-3-1-6(5-9)2-4-7/h1-4H,GJNGXPDXRVXSEH-UHFFFAOYSA-N,Clc1ccc(cc1)C#N,-2.749354496,0,1,G1,137.569,2.21168,36.167,9,1,0,2,0,44,1,0,0,1,23.79,58.49219114,3.056038396,232.088218
A-1268,1-chloro-4-nitrobenzene,InChI=1S/C6H4ClNO2/c7-5-1-3-6(4-2-5)8(9)10/h1-4H,CZGCEKJOLUNIFY-UHFFFAOYSA-N,[O-][N+](=O)c1ccc(Cl)cc1,-2.811828673,0.136194237,5,G5,157.556,2.2482,38.1064,10,2,0,4,1,52,1,0,0,1,43.14,62.38764507,3.003400685,244.4296584
A-1269,4-(propan-2-yl)benzaldehyde,"InChI=1S/C10H12O/c1-8(2)10-5-3-9(7-11)4-6-10/h3-8H,1-2H3",WTWBUQJHJGUZCY-UHFFFAOYSA-N,CC(C)c1ccc(C=O)cc1,-2.785256582,0.307196863,2,G3,148.205,2.6225,45.9185,11,1,0,1,2,58,1,0,0,1,17.07,67.05269368,2.9098228,233.5546193
A-1270,4-[(2-methylprop-2-enoyl)oxy]butyl 2-methylprop-2-enoate,"InChI=1S/C12H18O4/c1-9(2)11(13)15-7-5-6-8-16-12(14)10(3)4/h1,3,5-8H2,2,4H3",XOJWAAUYNWGQAU-UHFFFAOYSA-N,CC(=C)C(=O)OCCCCOC(=O)C(C)=C,-2.969024542,0,1,G1,226.272,2.0052,60.78,16,4,0,4,7,90,0,0,0,0,52.6,95.92454288,3.413855767,261.3938857
A-1274,1-(3-chlorophenyl)propan-1-one,"InChI=1S/C9H9ClO/c1-2-9(11)7-4-3-5-8(10)6-7/h3-6H,2H2,1H3",PQWGFUFROKIJBO-UHFFFAOYSA-N,CCC(=O)c1cccc(Cl)c1,-1.84670557,0,1,G1,168.623,2.9327,46.0735,11,1,0,2,2,58,1,0,0,1,17.07,70.99101779,2.957064034,268.0201726
A-1275,2-(phenoxymethyl)oxirane,"InChI=1S/C9H10O2/c1-2-4-8(5-3-1)10-6-9-7-11-9/h1-5,9H,6-7H2",FQYUMYWMJTYZTK-UHFFFAOYSA-N,C1OC1COc2ccccc2,-1.796392183,0,1,G1,150.177,1.4642,41.677,11,2,0,2,3,58,1,1,1,2,21.76,65.74748877,1.85119114,216.2641593
A-1276,nonanedioic acid,"InChI=1S/C9H16O4/c10-8(11)6-4-2-1-3-5-7-9(12)13/h1-7H2,(H,10,11)(H,12,13)",BDJRBEYXGGNYIS-UHFFFAOYSA-N,OC(=O)CCCCCCCC(O)=O,-1.894461449,0.062769275,2,G3,188.223,1.8863,47.5906,13,2,2,4,8,76,0,0,0,0,74.6,77.57029965,2.996104998,146.9976368
A-1277,"1,6-dioxacycloheptadecan-7-one",InChI=1S/C15H28O3/c16-15-11-7-5-3-1-2-4-6-8-12-17-13-9-10-14-18-15/h1-14H2,MRMOPGVGWFNHIN-UHFFFAOYSA-N,O=C1CCCCCCCCCCOCCCCO1,-4.0179592,0,1,G1,256.386,3.8509,72.565,18,3,0,3,0,106,0,1,1,1,35.53,111.231222,2.113694136,183.9153948
A-1280,"3,7-dimethyloctanal","InChI=1S/C10H20O/c1-9(2)5-4-6-10(3)7-8-11/h8-10H,4-7H2,1-3H3",UCSIFMPORANABL-UHFFFAOYSA-N,CC(C)CCCC(C)CC=O,-3.806483007,0,1,G1,156.269,3.0378,48.534,11,1,0,1,6,66,0,0,0,0,17.07,70.18525216,3.161833728,97.04589953
A-1286,"1,3-diphenylthiourea","InChI=1S/C13H12N2S/c16-13(14-11-7-3-1-4-8-11)15-12-9-5-2-6-10-12/h1-10H,(H2,14,15,16)",FCSHMCFRCYZTRQ-UHFFFAOYSA-N,S=C(Nc1ccccc1)Nc2ccccc2,-3.971688427,0.015454242,3,G5,228.32,3.4955,72.7274,16,1,2,3,2,80,2,0,0,2,24.06,100.3119441,1.952194148,410.3735146
A-1287,"estr-5(10)-ene-3,17-dione","InChI=1S/C18H24O2/c1-18-9-8-14-13-5-3-12(19)10-11(13)2-4-15(14)16(18)6-7-17(18)20/h14-16H,2-10H2,1H3/t14-,15-,16+,18+/m1/s1",RORYLAUXKSWMQL-CBZIJGRNSA-N,C[C@]12CC[C@H]3[C@@H](CCC4=C3CCC(=O)C4)[C@@H]1CCC2=O,-4.054976729,0.009241703,2,G3,272.388,3.8414,77.17,20,2,0,2,0,108,0,2,4,4,34.14,120.5533835,1.668025763,515.5112639
A-1288,1-bromopropane,"InChI=1S/C3H7Br/c1-2-3-4/h2-3H2,1H3",CYNYIHKIEHGYOZ-UHFFFAOYSA-N,CCCBr,-1.710756249,0.014259394,3,G5,122.993,1.7913,24.085,4,0,0,1,1,26,0,0,0,0,0,35.33668286,1.974744871,5.245112498
A-1289,1-chloro-4-methoxybenzene,"InChI=1S/C7H7ClO/c1-9-7-4-2-6(8)3-5-7/h2-5H,1H3",YRGAYAGBVIXNAQ-UHFFFAOYSA-N,COc1ccc(Cl)cc1,-2.779325494,0,1,G1,142.585,2.3486,38.004,9,1,0,2,1,48,1,0,0,1,9.23,59.21315669,2.881555878,180.6125685
A-1290,Fluocortolone,"InChI=1S/C22H29FO4/c1-11-6-14-13-8-16(23)15-7-12(25)4-5-21(15,2)20(13)17(26)9-22(14,3)19(11)18(27)10-24/h4-5,7,11,13-14,16-17,19-20,24,26H,6,8-10H2,1-3H3/t11-,13+,14+,16+,17+,19-,20-,21+,22+/m1/s1",GAKMQHDJQHZUTJ-ULHLPKEOSA-N,C[C@@H]1C[C@H]2[C@@H]3C[C@H](F)C4=CC(=O)C=C[C@]4(C)[C@H]3[C@@H](O)C[C@]2(C)[C@H]1C(=O)CO,-3.203737155,0.062858802,3,G5,376.468,2.6367,98.4146,27,4,2,5,2,148,0,3,4,4,74.6,159.0775519,1.772518239,742.5948094
A-1291,sodium 3-[(E)-2-[4-(phenylamino)phenyl]diazen-1-yl]benzene-1-sulfonate,"InChI=1S/C18H15N3O3S.Na/c22-25(23,24)18-8-4-7-17(13-18)21-20-16-11-9-15(10-12-16)19-14-5-2-1-3-6-14;/h1-13,19H,(H,22,23,24);/q;+1/p-1",NYGZLYXAPMMJTE-UHFFFAOYSA-M,[Na+].[O-][S](=O)(=O)c1cccc(c1)N=Nc2ccc(Nc3ccccc3)cc2,-1.204686091,0,1,G1,375.385,1.7537,94.7479,26,6,1,8,5,126,3,0,0,3,93.95,173.5842672,2.43E-06,991.7046088
A-1292,"3-methyl-1,1-diphenylurea","InChI=1S/C14H14N2O/c1-15-14(17)16(12-8-4-2-5-9-12)13-10-6-3-7-11-13/h2-11H,1H3,(H,15,17)",IMFYAZJNDOZIFV-UHFFFAOYSA-N,CNC(=O)N(c1ccccc1)c2ccccc2,-2.983946158,0,1,G1,226.279,3.1641,69.4787,17,1,1,3,2,86,2,0,0,2,32.34,100.6895995,2.431439728,442.5901009
A-1293,biphenyl-2-amine,"InChI=1S/C12H11N/c13-12-9-5-4-8-11(12)10-6-2-1-3-7-10/h1-9H,13H2",TWBPWBPGNQWFSJ-UHFFFAOYSA-N,Nc1ccccc1c2ccccc2,-2.861113735,0,1,G1,169.227,2.9358,56.2904,13,1,1,1,1,64,2,0,0,2,26.02,77.82838802,2.536070446,392.8790478
A-1294,1-{[bis(2-chloroethoxy)phosphoryl]oxy}-2-({[bis(2-chloroethoxy)phosphoryl]oxy}methyl)-3-chloro-2-(chloromethyl)propane,"InChI=1S/C13H24Cl6O8P2/c14-1-5-22-28(20,23-6-2-15)26-11-13(9-18,10-19)12-27-29(21,24-7-3-16)25-8-4-17/h1-12H2",ZGHUDSLVQAGWEY-UHFFFAOYSA-N,ClCCO[P](=O)(OCCCl)OCC(CCl)(CCl)CO[P](=O)(OCCCl)OCCCl,-3.400175355,0,1,G1,582.993,5.7214,117.678,29,8,0,16,20,176,0,0,0,0,89.52,200.7186465,5.155587644,449.69594
A-1295,"cyclohexane-1,4-dicarboxylic acid","InChI=1S/C8H12O4/c9-7(10)5-1-2-6(4-3-5)8(11)12/h5-6H,1-4H2,(H,9,10)(H,11,12)",PXGZQGDTEZPERC-UHFFFAOYSA-N,OC(=O)C1CCC(CC1)C(O)=O,-0.872370724,0,1,G1,172.18,0.962,40.7196,12,2,2,4,2,68,0,1,1,1,74.6,70.19952638,2.39277708,169.2345412
A-1298,2-(7-ethyl-1H-indol-3-yl)ethan-1-ol,"InChI=1S/C12H15NO/c1-2-9-4-3-5-11-10(6-7-14)8-13-12(9)11/h3-5,8,13-14H,2,6-7H2,1H3",UVSDNCAZVSQJQA-UHFFFAOYSA-N,CCc1cccc2c(CCO)c[nH]c12,-1.91532641,0,1,G1,189.258,2.2651,58.4665,14,1,2,2,3,74,2,0,0,2,36.02,83.57623028,2.572849271,430.8143917
A-1302,"3-(1-ethoxyethoxy)-3,7-dimethylocta-1,6-diene","InChI=1S/C14H26O2/c1-7-14(6,11-9-10-12(3)4)16-13(5)15-8-2/h7,10,13H,1,8-9,11H2,2-6H3",ZJPKYCLAROITRY-UHFFFAOYSA-N,CCOC(C)OC(C)(CCC=C(C)C)C=C,-3.976401784,0,1,G1,226.36,4.0766,69.44,16,2,0,2,8,94,0,0,0,0,18.46,100.3313829,4.192440365,228.8898406
A-1304,diphenylmethanone,InChI=1S/C13H10O/c14-13(11-7-3-1-4-8-11)12-9-5-2-6-10-12/h1-10H,RWCCWEUUXYIKHB-UHFFFAOYSA-N,O=C(c1ccccc1)c2ccccc2,-3.882202908,0.379151454,2,G3,182.222,2.9176,56.3165,14,1,0,1,2,68,2,0,0,2,17.07,83.01496154,2.348637605,376.0032554
A-1305,1-cyclohexylethyl butanoate,"InChI=1S/C12H22O2/c1-3-7-12(13)14-10(2)11-8-5-4-6-9-11/h10-11H,3-9H2,1-2H3",FTMSYMOBBRINAR-UHFFFAOYSA-N,CCCC(=O)OC(C)C1CCCCC1,-3.920758898,0,1,G1,198.306,3.2985,57.037,14,2,0,2,4,82,0,1,1,1,26.3,87.02285046,2.248551122,171.1605427
A-1306,"2-ethyl-3-hydroxy-2-[2-(6-methoxy-3,4-dihydronaphthalen-1(2H)-ylidene)ethyl]cyclopentanone","InChI=1S/C20H26O3/c1-3-20(18(21)9-10-19(20)22)12-11-14-5-4-6-15-13-16(23-2)7-8-17(14)15/h7-8,11,13,18,21H,3-6,9-10,12H2,1-2H3",ZXYHLOFRRMDJAQ-UHFFFAOYSA-N,CCC1(CC=C2CCCc3cc(OC)ccc23)C(O)CCC1=O,-4.122768724,0,1,G1,314.425,3.9252,91.4978,23,3,1,3,4,124,1,1,2,3,46.53,137.9086285,1.883668666,631.7739988
A-1308,butylbenzene,"InChI=1S/C10H14/c1-3-9(2)10-7-5-4-6-8-10/h4-9H,3H2,1-2H3",ZJMWRROPUADPEA-UHFFFAOYSA-N,CCC(C)c1ccccc1,-3.758607848,0.264323878,7,G5,134.222,3.2001,45.148,10,0,0,0,2,54,1,0,0,1,0,62.89117158,2.746978189,176.4896155
A-1309,"sodium 1-amino-4-[(3-acetamidophenyl)amino]-9,10-dioxo-9,10-dihydroanthracene-2-sulfonate","InChI=1S/C22H17N3O6S.Na/c1-11(26)24-12-5-4-6-13(9-12)25-16-10-17(32(29,30)31)20(23)19-18(16)21(27)14-7-2-3-8-15(14)22(19)28;/h2-10,25H,23H2,1H3,(H,24,26)(H,29,30,31);/q;+1/p-1",MIBVDSFVCOIWCC-UHFFFAOYSA-M,[Na+].CC(=O)Nc1cccc(Nc2cc(c(N)c3C(=O)c4ccccc4C(=O)c23)[S]([O-])(=O)=O)c1,-4.307910861,0.054838673,2,G3,473.442,-0.3457,116.153,33,8,3,11,4,162,3,0,1,4,158.49,210.9657458,3.06E-06,1436.03885
A-1311,1-methyl-1-(4-methylcyclohex-3-en-1-yl)ethyl acetate,"InChI=1S/C12H20O2/c1-9-5-7-11(8-6-9)12(3,4)14-10(2)13/h5,11H,6-8H2,1-4H3",IGODOXYLBBXFDW-UHFFFAOYSA-N,CC(=O)OC(C)(C)C1CCC(=CC1)C,-3.931170339,0,1,G1,196.29,3.0745,56.943,14,2,0,2,2,80,0,0,1,1,26.3,86.33324743,2.598830002,251.047344