ID,Name,InChI,InChIKey,SMILES,Solubility,SD,Ocurrences,Group,MolWt,MolLogP,MolMR,HeavyAtomCount,NumHAcceptors,NumHDonors,NumHeteroatoms,NumRotatableBonds,NumValenceElectrons,NumAromaticRings,NumSaturatedRings,NumAliphaticRings,RingCount,TPSA,LabuteASA,BalabanJ,BertzCT
A-3185,"2-[(1E)-[2-(4-methoxyphenyl)-2-methylhydrazin-1-ylidene]methyl]-1,3,3-trimethyl-3H-indol-1-ium methyl sulfate","InChI=1S/C20H24N3O.CH4O4S/c1-20(2)17-8-6-7-9-18(17)22(3)19(20)14-21-23(4)15-10-12-16(24-5)13-11-15;1-5-6(2,3)4/h6-14H,1-5H3;1H3,(H,2,3,4)/q+1;/p-1",SPWPAFQLIZTXFN-UHFFFAOYSA-M,COc1ccc(cc1)N(C)N=CC2=[N+](C)c3ccccc3C2(C)C.CO[S]([O-])(=O)=O,-1.692536484,0,1,G1,433.53,2.9164,116.9146,30,7,0,9,5,162,2,0,1,3,94.27,177.5682928,4.69E-07,1044.566448
A-3186,"2-butyl-2-ethylpropane-1,3-diol","InChI=1S/C9H20O2/c1-3-5-6-9(4-2,7-10)8-11/h10-11H,3-8H2,1-2H3",DSKYSDCYIODJPC-UHFFFAOYSA-N,CCCCC(CC)(CO)CO,-1.260334336,0,1,G1,160.257,1.5576,46.4206,11,2,2,2,6,68,0,0,0,0,40.46,69.24725545,3.835257158,79.2988603
A-3190,iodomethane,InChI=1S/CH3I/c1-2/h1H3,INQOMBQAUSQDDS-UHFFFAOYSA-N,CI,-1.214583849,0.102748454,2,G3,141.939,1.0512,19.944,2,0,0,1,0,14,0,0,0,0,0,28.00108915,1,2
A-3193,(2E)-2-methylpent-2-enal,"InChI=1S/C6H10O/c1-3-4-6(2)5-7/h4-5H,3H2,1-2H3/b6-4+",IDEYZABHVQLHAF-GQCTYLIASA-N,CC\C=C(/C)C=O,-1.057369728,0,1,G1,98.145,1.5416,30.112,7,1,0,1,2,40,0,0,0,0,17.07,44.03588067,3.490361884,82.18080947
A-3195,Pyromellitic dianhydride,InChI=1S/C10H2O6/c11-7-3-1-4-6(10(14)16-8(4)12)2-5(3)9(13)15-7/h1-2H,ANSXAPJVJOKRDJ-UHFFFAOYSA-N,O=C1OC(=O)c2cc3C(=O)OC(=O)c3cc12,-1.406221724,0.006743469,2,G3,218.12,-0.5046,53.438,16,6,0,6,0,78,3,0,0,3,94.56,85.02947911,2.79863957,769.6521154
A-3196,butyl 4-oxopentanoate,"InChI=1S/C9H16O3/c1-3-4-7-12-9(11)6-5-8(2)10/h3-7H2,1-2H3",ISBWNEKJSSLXOD-UHFFFAOYSA-N,CCCCOC(=O)CCC(C)=O,-1.306674746,0,1,G1,172.224,1.6989,45.782,12,3,0,3,6,70,0,0,0,0,43.37,73.09537737,3.276553316,151.8526375
A-3197,"5-methyl-octahydro-2-benzofuran-1,3-dione","InChI=1S/C9H12O3/c1-5-2-3-6-7(4-5)9(11)12-8(6)10/h5-7H,2-4H2,1H3",FKBMTBAXDISZGN-UHFFFAOYSA-N,CC1CCC2C(C1)C(=O)OC2=O,-1.301526049,0.02672216,2,G3,168.192,1.1222,41.094,12,3,0,3,0,66,0,2,2,2,43.37,71.08371507,2.169335366,233.928147
A-3199,calcium bis(2-ethylhexanoate),"InChI=1S/2C8H16O2.Ca/c2*1-3-5-6-7(4-2)8(9)10;/h2*7H,3-6H2,1-2H3,(H,9,10);/q;;+2/p-2",LTPCXXMGKDQPAO-UHFFFAOYSA-L,[Ca++].CCCCC(CC)C([O-])=O.CCCCC(CC)C([O-])=O,-1.591715559,0.491550862,2,G3,326.49,1.5246,82.38,21,4,0,5,10,120,0,0,0,0,80.26,159.2464936,-2.95E-07,230.6615312
A-3201,"2,6-dimethylaniline","InChI=1S/C8H11N/c1-6-4-3-5-7(2)8(6)9/h3-5H,9H2,1-2H3",UFFBMTHBGFGIHF-UHFFFAOYSA-N,Cc1cccc(C)c1N,-1.167514488,0.09900807,2,G3,121.183,1.88564,40.3284,9,1,1,1,0,48,1,0,0,1,26.02,55.50117805,3.247834734,195.5576621
A-3202,"1,4-dimethyl cyclohexane-1,4-dicarboxylate","InChI=1S/C10H16O4/c1-13-9(11)7-3-5-8(6-4-7)10(12)14-2/h7-8H,3-6H2,1-2H3",LNGAGQAGYITKCW-UHFFFAOYSA-N,COC(=O)C1CCC(CC1)C(=O)OC,-1.387194666,0,1,G1,200.234,1.1388,49.48,14,4,0,4,2,80,0,1,1,1,52.6,83.56803356,2.380766279,192.161888
A-3204,"sodium 1,4-bis[(2-ethylhexyl)oxy]-1,4-dioxobutane-2-sulfonate","InChI=1S/C20H38O7S.Na/c1-5-9-11-16(7-3)14-26-19(21)13-18(28(23,24)25)20(22)27-15-17(8-4)12-10-6-2;/h16-18H,5-15H2,1-4H3,(H,23,24,25);/q;+1/p-1",APSBXTVYXVQYAB-UHFFFAOYSA-M,[Na+].CCCCC(CC)COC(=O)CC(C(=O)OCC(CC)CCCC)[S]([O-])(=O)=O,-1.735714189,0,1,G1,444.566,0.8135,106.6322,29,7,0,9,16,166,0,0,0,0,109.8,198.2653215,0,551.0329672
A-3205,4-aminobenzamide,"InChI=1S/C7H8N2O/c8-6-3-1-5(2-4-6)7(9)10/h1-4H,8H2,(H2,9,10)",QIKYZXDTTPVVAC-UHFFFAOYSA-N,NC(=O)c1ccc(N)cc1,-1.225545386,0,1,G1,136.154,0.3677,39.3723,10,2,2,3,1,52,1,0,0,1,69.11,58.63764873,3.003400685,240.2879489
A-3206,"1,3-dimethyl-3,7-dihydro-1H-purine-2,6-dione","InChI=1S/C7H8N4O2/c1-10-5-4(8-3-9-5)6(12)11(2)7(10)13/h3H,1-2H3,(H,8,9)",ZFXYFBGIUFBOJW-UHFFFAOYSA-N,CN1C(=O)N(C)c2nc[nH]c2C1=O,-1.35258526,0.016929134,2,G3,180.167,-1.0397,46.5757,13,5,1,6,0,68,2,0,0,2,72.68,72.45404342,3.211853813,574.1705594
A-3208,"2,2,4-trimethylhexanedinitrile; 2,4,4-trimethylhexanedinitrile","InChI=1S/2C9H14N2/c1-8(7-11)6-9(2,3)4-5-10;1-8(4-5-10)6-9(2,3)7-11/h2*8H,4,6H2,1-3H3",CMIRRYUUJFPVJI-UHFFFAOYSA-N,CC(CC#N)CC(C)(C)C#N.CC(CC(C)(C)CC#N)C#N,-1.574682221,0,1,G1,300.45,4.95212,86.81,22,4,0,4,6,120,0,0,0,0,95.16,135.5194169,0,477.1774455
A-3209,benzyldimethylamine,"InChI=1S/C9H13N/c1-10(2)8-9-6-4-3-5-7-9/h3-7H,8H2,1-2H3",XXBDWLFCJWSEKW-UHFFFAOYSA-N,CN(C)Cc1ccccc1,-1.227918826,0.088059413,2,G3,135.21,1.7482,43.833,10,1,0,1,2,54,1,0,0,1,3.24,62.28606313,2.587287185,179.1795714
A-3210,trichloromethane,InChI=1S/CHCl3/c2-1(3)4/h1H,HEDRZPFGACZZDS-UHFFFAOYSA-N,ClC(Cl)Cl,-1.173834312,0.018214633,2,G3,119.378,1.9864,21.347,4,0,0,3,0,26,0,0,0,0,0,39.64904971,2.323790008,8
A-3211,ammonium bromide,InChI=1S/BrH.H3N/h1H;1H3,SWLVFNYSXGMGBS-UHFFFAOYSA-N,[NH4+].[Br-],1.908299785,0,1,G1,97.943,-2.6198,5.9848,2,0,1,2,0,16,0,0,0,0,36.5,24.01693024,0,2
A-3212,oxolan-2-ylmethyl prop-2-enoate,"InChI=1S/C8H12O3/c1-2-8(9)11-6-7-4-3-5-10-7/h2,7H,1,3-6H2",YNXCGLKMOXLBOD-UHFFFAOYSA-N,C=CC(=O)OCC1CCCO1,-0.295451716,0,1,G1,156.181,0.8946,40.13,11,3,0,3,3,62,0,1,1,1,35.53,65.9870242,2.103831692,147.4161604
A-3215,potassium 4-(acetoacetylamino)benzenesulfonate,"InChI=1S/C10H11NO5S.K/c1-7(12)6-10(13)11-8-2-4-9(5-3-8)17(14,15)16;/h2-5H,6H2,1H3,(H,11,13)(H,14,15,16);/q;+1/p-1",FNLKZYBTJKUMQM-UHFFFAOYSA-M,[K+].CC(=O)CC(=O)Nc1ccc(cc1)[S]([O-])(=O)=O,0.421747335,0,1,G1,295.357,-2.4877,58.3329,18,5,1,8,4,92,1,0,0,1,103.37,147.3152787,2.89E-06,537.891396
A-3216,"(5R)-5-[(1S)-1,2-dihydroxyethyl]-4-ethoxy-3-hydroxy-5H-furan-2-one","InChI=1S/C8H12O6/c1-2-13-7-5(11)8(12)14-6(7)4(10)3-9/h4,6,9-11H,2-3H2,1H3/t4-,6+/m0/s1",ZGSCRDSBTNQPMS-UJURSFKZSA-N,CCOC1=C(O)C(=O)O[C@@H]1[C@@H](O)CO,0.580970652,0.066260783,3,G5,204.178,-0.9289,44.2534,14,6,3,6,4,80,0,0,1,1,96.22,80.36972546,2.839067276,258.557119
A-3217,tetrasodium (1-hydroxy-1-phosphonatoethyl)phosphonate,"InChI=1S/C2H8O7P2.4Na/c1-2(3,10(4,5)6)11(7,8)9;;;;/h3H,1H3,(H2,4,5,6)(H2,7,8,9);;;;/q;4*+1/p-4",KWXLCDNSEHTOCB-UHFFFAOYSA-J,[Na+].[Na+].[Na+].[Na+].CC(O)([P]([O-])([O-])=O)[P]([O-])([O-])=O,0.420460109,0,1,G1,293.955,-15.5042,25.8368,15,7,1,13,2,68,0,0,0,0,146.61,175.6548412,-8.33E-08,219.3747398
A-3218,"1,4-dimethyl (2Z)-but-2-enedioate","InChI=1S/C6H8O4/c1-9-5(7)3-4-6(8)10-2/h3-4H,1-2H3/b4-3-",LDCRTTXIJACKKU-ARJAWSKDSA-N,COC(=O)\C=C/C(=O)OC,-0.267204876,0.032691652,3,G5,144.126,-0.1114,33.172,10,4,0,4,2,56,0,0,0,0,52.6,58.42449323,3.752603086,141.1307515
A-3219,"2-methylbenzene-1,4-diol","InChI=1S/C7H8O2/c1-5-4-6(8)2-3-7(5)9/h2-4,8-9H,1H3",CNHDIAIOKMXOLK-UHFFFAOYSA-N,Cc1cc(O)ccc1O,-0.207417517,0,1,G1,124.139,1.40622,34.5086,9,2,2,2,0,48,1,0,0,1,40.46,53.38481274,3.17167803,218.1561776
A-3220,"1,3-dimethylurea","InChI=1S/C3H8N2O/c1-4-3(6)5-2/h1-2H3,(H2,4,5,6)",MGJKQDOBUOMPEZ-UHFFFAOYSA-N,CNC(=O)NC,0.938636234,0,1,G1,88.11,-0.4548,23.5154,6,1,2,3,0,36,0,0,0,0,41.13,36.73038172,2.988160882,46.7548875
A-3222,tetraazanium dioxido-dioxomolybdenum,InChI=1S/2Mo.4H3N.8O/h;;4*1H3;;;;;;;;/q;;;;;;;;;;4*-1/p+4,NZRDUKISIQWGIN-UHFFFAOYSA-R,[NH4+].[NH4+].[NH4+].[NH4+].[O-][Mo]([O-])(=O)=O.[O-][Mo]([O-])(=O)=O,-2.580479862,0,1,G1,392.028,-3.7314,26.6852,14,8,4,14,0,96,0,0,0,0,306.52,86.71645782,-1.78E-08,215.7164046
A-3223,sodium 3-[(2-carboxyethyl)(2-ethylhexyl)amino]propanoate,"InChI=1S/C14H27NO4.Na/c1-3-5-6-12(4-2)11-15(9-7-13(16)17)10-8-14(18)19;/h12H,3-11H2,1-2H3,(H,16,17)(H,18,19);/q;+1/p-1",WVQFKDGIJVWORA-UHFFFAOYSA-M,[Na+].CCCCC(CC)CN(CCC(O)=O)CCC([O-])=O,0.410469265,0,1,G1,295.355,-1.8765,71.6228,20,4,1,6,12,112,0,0,0,0,80.67,143.5682435,0,255.8995181
A-3227,copper(2+) diacetate,"InChI=1S/2C2H4O2.Cu/c2*1-2(3)4;/h2*1H3,(H,3,4);/q;;+2/p-2",OPQARKPSCNTWTJ-UHFFFAOYSA-L,[Cu++].CC([O-])=O.CC([O-])=O,-0.375535712,0,1,G1,181.634,-2.4901,21.362,9,4,0,5,0,57,0,0,0,0,80.26,63.3470405,-7.20E-08,70.56842503
A-3230,"N,N-dimethylmethanaminium chloride",InChI=1S/C3H9N.ClH/c1-4(2)3;/h1-3H3;1H,SZYJELPVAFJOGJ-UHFFFAOYSA-N,[H+].[Cl-].CN(C)C,0.899333987,0,1,G1,95.573,-2.7057,20.723,5,1,0,2,0,34,0,0,0,0,3.24,40.86686055,-4.50E-08,15.509775
A-3232,"N-methylmethanaminium (2,4-dichlorophenoxy)acetate","InChI=1S/C8H6Cl2O3.C2H7N/c9-5-1-2-7(6(10)3-5)13-4-8(11)12;1-3-2/h1-3H,4H2,(H,11,12);3H,1-2H3",IUQJDHJVPLLKFL-UHFFFAOYSA-N,CNC.OC(=O)COc1ccc(Cl)cc1Cl,0.449977221,0,1,G1,266.124,2.2924,64.5765,16,3,2,6,3,90,1,0,0,1,58.56,104.1226984,6.73E-07,344.8360687
A-3233,methyl 3-methoxypropanoate,"InChI=1S/C5H10O3/c1-7-4-3-5(6)8-2/h3-4H2,1-2H3",BDJSOPWXYLFTNW-UHFFFAOYSA-N,COCCC(=O)OC,0.802693707,0,1,G1,118.132,0.1959,28.509,8,3,0,3,3,48,0,0,0,0,35.53,48.58763204,2.988598648,70.07403392
A-3234,potassium cyanate,InChI=1S/CHNO.K/c2-1-3;/h3H;/q;+1/p-1,GKKCIDNWFBPDBW-UHFFFAOYSA-M,[K+].[O-]C#N,0.965960091,0,1,G1,81.115,-4.16822,5.613,4,2,0,3,0,16,0,0,0,0,46.85,66.84862916,0,29.509775
A-3235,4-(vinyloxy)butan-1-ol,"InChI=1S/C6H12O2/c1-2-8-6-4-3-5-7/h2,7H,1,3-6H2",HMBNQNDUEFFFNZ-UHFFFAOYSA-N,OCCCCOC=C,-0.18999534,0,1,G1,116.16,0.919,32.4688,8,2,1,2,5,48,0,0,0,0,29.46,49.78213755,2.61629309,52.490225
A-3236,potassium phosphinate,"InChI=1S/K.HO2P/c;1-3-2/h;(H,1,2)/q+1;/p-1",CRGPNLUFHHUKCM-UHFFFAOYSA-M,[K+].[O-]P=O,0.862674821,0,1,G1,102.07,-3.4426,7.6065,4,2,0,4,0,18,0,0,0,0,40.13,68.29758736,0,13.509775
A-3237,sodium phosphinate,"InChI=1S/Na.HO2P.H2O/c;1-3-2;/h;(H,1,2);1H2/q+1;;/p-1",ACUGTEHQOFWBES-UHFFFAOYSA-M,O.[Na+].[O-]P=O,0.854635653,0,1,G1,103.977,-4.2673,11.2203,5,2,0,5,0,26,0,0,0,0,71.63,53.26917572,-2.00E-08,14.36452798
A-3238,2-(butoxymethyl)oxirane; propan-2-amine; trifluoroborane,"InChI=1S/C7H14O2.C3H9N.BF3/c1-2-3-4-8-5-7-6-9-7;1-3(2)4;2-1(3)4/h7H,2-6H2,1H3;3H,4H2,1-2H3;",CXWVMBGMGJTKRX-UHFFFAOYSA-N,CCCCOCC1CO1.CC(C)N.FB(F)F,-0.53795425,0,1,G1,257.105,2.4352,63.8684,17,3,1,7,5,104,0,1,1,1,47.78,102.0636275,0,138.0029248
A-3239,benzyltriphenylphosphanium chloride,"InChI=1S/C25H22P.ClH/c1-5-13-22(14-6-1)21-26(23-15-7-2-8-16-23,24-17-9-3-10-18-24)25-19-11-4-12-20-25;/h1-20H,21H2;1H/q+1;/p-1",USFRYJRPHFMVBZ-UHFFFAOYSA-M,[Cl-].C(c1ccccc1)[P+](c2ccccc2)(c3ccccc3)c4ccccc4,-0.718824561,0,1,G1,388.878,2.1847,115.294,27,0,0,2,5,134,4,0,0,4,0,168.2053016,2.10E-06,841.8000083
A-3240,"sodium 1,4-bis(cyclohexyloxy)-1,4-dioxobutane-2-sulfonate","InChI=1S/C16H26O7S.Na/c17-15(22-12-7-3-1-4-8-12)11-14(24(19,20)21)16(18)23-13-9-5-2-6-10-13;/h12-14H,1-11H2,(H,19,20,21);/q;+1/p-1",UELAIMNOXLAYRW-UHFFFAOYSA-M,[Na+].[O-][S](=O)(=O)C(CC(=O)OC1CCCCC1)C(=O)OC2CCCCC2,-0.714701597,0,1,G1,384.426,-0.9539,84.0322,25,7,0,9,6,138,0,2,2,2,109.8,170.7938907,3.12E-06,536.686485
A-3241,"2-[2-[4-[(2-cyanoethyl)methylamino]phenyl]vinyl]-1,3,3-trimethyl-3H-indolium hydrogen sulphate","InChI=1S/C23H26N3.H2O4S/c1-23(2)20-8-5-6-9-21(20)26(4)22(23)15-12-18-10-13-19(14-11-18)25(3)17-7-16-24;1-5(2,3)4/h5-6,8-15H,7,17H2,1-4H3;(H2,1,2,3,4)/q+1;/p-2",SMCZLJWHBOXGOO-UHFFFAOYSA-L,CN(CCC#N)c1ccc(cc1)C=CC2=[N+](C)c3ccccc3C2(C)C.[O-][S]([O-])(=O)=O,-0.774172069,0,1,G1,440.545,3.41788,119.77,31,6,0,8,5,164,2,0,1,3,110.3,183.7028385,6.14E-07,1120.156712
A-3246,disodium [(sulfonoperoxoato sulfato)oxy]sulfonoperoxoate,"InChI=1S/2Na.H2O8S2/c;;1-9(2,3)7-8-10(4,5)6/h;;(H,1,2,3)(H,4,5,6)/q2*+1;/p-2",CHQMHPLRPQMAMX-UHFFFAOYSA-L,[Na+].[Na+].[O-][S](=O)(=O)OO[S]([O-])(=O)=O,0.486552521,0,1,G1,238.106,-8.137,21.5644,12,8,0,12,3,62,0,0,0,0,132.86,113.0327737,-4.05E-07,251.01955
A-3247,sodium 4-{5-hydroxy-3-methyl-4-[(E)-2-[4-methyl-3-(phenylsulfamoyl)phenyl]diazen-1-yl]-1H-pyrazol-1-yl}benzene-1-sulfonate,"InChI=1S/C23H21N5O6S2.Na/c1-15-8-9-18(14-21(15)35(30,31)27-17-6-4-3-5-7-17)24-25-22-16(2)26-28(23(22)29)19-10-12-20(13-11-19)36(32,33)34;/h3-14,22,27H,1-2H3,(H,32,33,34);/q;+1/p-1",WYLWMAWLDZBLRN-UHFFFAOYSA-M,[Na+].CC1=NN(C(=O)C1N=Nc2ccc(C)c(c2)[S](=O)(=O)Nc3ccccc3)c4ccc(cc4)[S]([O-])(=O)=O,-0.872552369,0,1,G1,549.566,0.57892,131.7337,37,9,1,14,7,186,3,0,1,4,160.76,235.9507368,3.80E-06,1592.275077
A-3249,acrylic acid,"InChI=1S/C3H4O2/c1-2-3(4)5/h2H,1H2,(H,4,5)",NIXOWILDQLNWCW-UHFFFAOYSA-N,OC(=O)C=C,0.00596733,0.568160166,2,G2,72.063,0.257,17.8328,5,1,1,2,1,28,0,0,0,0,37.3,29.73528808,3.204805418,55.913403
A-3250,methanamine,"InChI=1S/CH5N/c1-2/h2H2,1H3",BAVYZALUXZFZLV-UHFFFAOYSA-N,CN,1.368643478,0.086328261,2,G3,31.058,-0.4251,10.1114,2,1,1,1,0,14,0,0,0,0,26.02,14.07914172,1,2
A-3254,iron(3+) ion sodium 2-({2-[bis(carboxylatomethyl)amino]ethyl}(carboxylatomethyl)amino)acetate,"InChI=1S/C10H16N2O8.Fe.Na/c13-7(14)3-11(4-8(15)16)1-2-12(5-9(17)18)6-10(19)20;;/h1-6H2,(H,13,14)(H,15,16)(H,17,18)(H,19,20);;/q;+3;+1/p-4",MKWYFZFMAMBPQK-UHFFFAOYSA-J,[Na+].[Fe+3].[O-]C(=O)CN(CCN(CC([O-])=O)CC([O-])=O)CC([O-])=O,-0.707389182,0,1,G1,367.047,-10.4085,52.908,22,10,0,12,11,119,0,0,0,0,167,158.3754407,-1.80E-06,327.1228148
A-3256,Dihydrodicyclopentadienyl acrylate,"InChI=1S/C13H16O2/c1-2-12(14)15-11-6-5-10-8-3-4-9(7-8)13(10)11/h2,5-6,8-11,13H,1,3-4,7H2",ISRJTGUYHVPAOR-UHFFFAOYSA-N,C=CC(=O)OC1C=CC2C3CCC(C3)C12,-3.708142472,0,1,G1,204.269,2.3163,57.028,15,2,0,2,2,80,0,2,3,3,26.3,89.99692421,1.749424723,331.4276545
A-3258,sodium prop-2-ene-1-sulfonate,"InChI=1S/C3H6O3S.Na/c1-2-3-7(4,5)6;/h2H,1,3H2,(H,4,5,6);/q;+1/p-1",DIKJULDDNQFCJG-UHFFFAOYSA-M,[Na+].[O-][S](=O)(=O)CC=C,0.694952865,0,1,G1,144.127,-3.2784,24.7612,8,3,0,5,2,42,0,0,0,0,57.2,70.82156786,0,147.9114705
A-3259,"tetrasodium 3-[(E)-2-(4-{[4-({4-[(E)-2-(4,8-disulfonatonaphthalen-2-yl)diazen-1-yl]-3-methylphenyl}amino)-6-[(2-hydroxyethyl)amino]-1,3,5-triazin-2-yl]amino}-2-methylphenyl)diazen-1-yl]naphthalene-1,5-disulfonate","InChI=1S/C39H34N10O13S4.4Na/c1-21-15-23(9-11-31(21)48-46-25-17-29-27(35(19-25)65(57,58)59)5-3-7-33(29)63(51,52)53)41-38-43-37(40-13-14-50)44-39(45-38)42-24-10-12-32(22(2)16-24)49-47-26-18-30-28(36(20-26)66(60,61)62)6-4-8-34(30)64(54,55)56;;;;/h3-12,15-20,50H,13-14H2,1-2H3,(H,51,52,53)(H,54,55,56)(H,57,58,59)(H,60,61,62)(H3,40,41,42,43,44,45);;;;/q;4*+1/p-4",YYRIJHSNZXZKJD-UHFFFAOYSA-J,[Na+].[Na+].[Na+].[Na+].Cc1cc(Nc2nc(NCCO)nc(Nc3ccc(N=Nc4cc5c(cccc5[S]([O-])(=O)=O)c(c4)[S]([O-])(=O)=O)c(C)c3)n2)ccc1N=Nc6cc7c(cccc7[S]([O-])(=O)=O)c(c6)[S]([O-])(=O)=O,-1.174873472,0,1,G1,1066.954,-5.85056,232.4267,70,23,4,31,15,342,7,0,0,7,373.23,488.6473399,3.24E-06,3423.681422
A-3261,"2-(6-methoxybenzofuran-2-yl)-1,3-dimethyl-5-(methylsulphonyl)1H-benzimidazolium acetate","InChI=1S/C19H20N2O4S.C2H4O2/c1-20-15-8-7-14(26(4,22)23)11-16(15)21(2)19(20)18-9-12-5-6-13(24-3)10-17(12)25-18;1-2(3)4/h5-11,19H,1-4H3;1H3,(H,3,4)",LFEGBBYAYJXRBY-UHFFFAOYSA-N,COc1ccc2cc(oc2c1)C3N(C)c4cc(ccc4[NH+]3C)[S](C)(=O)=O.CC([O-])=O,0.212574469,0,1,G1,432.498,0.8959,110.6895,30,7,1,9,3,160,3,0,1,4,104.32,174.7334527,5.89E-07,1197.427011
A-3262,2-[4-(2-hydroxyethyl)piperazin-1-yl]ethanesulfonic acid,"InChI=1S/C8H18N2O4S.Na/c11-7-5-9-1-3-10(4-2-9)6-8-15(12,13)14;/h11H,1-8H2,(H,12,13,14);/q;+1/p-1",RDZTWEVXRGYCFV-UHFFFAOYSA-M,[Na+].OCCN1CCN(CC1)CC[S]([O-])(=O)=O,0.431866679,0.016372127,2,G3,260.291,-4.8545,54.53,16,6,1,8,5,90,0,1,1,1,83.91,118.6439514,2.25E-06,277.7628977
A-3263,L-prolinamide,"InChI=1S/C5H10N2O/c6-5(8)4-2-1-3-7-4/h4,7H,1-3H2,(H2,6,8)/p+1/t4-/m0/s1",VLJNHYLEOZPXFW-BYPYZUCNSA-O,NC(=O)[C@@H]1CCC[NH2+]1,0.785359758,0,1,G1,115.156,-1.8025,29.0088,8,1,2,3,1,46,0,1,1,1,59.7,48.24446331,2.349936739,96.6017922
A-3264,"1,2,4-triazole","InChI=1S/C2H3N3/c1-3-2-5-4-1/h1-2H,(H,3,4,5)",NSPMIYGKQJPBQR-UHFFFAOYSA-N,[nH]1cncn1,1.005827448,0.00911241,2,G3,69.067,-0.1953,16.3827,5,2,1,3,0,26,1,0,0,1,41.57,29.04831307,3.125,61.36993061
A-3265,bromide,InChI=1S/BrH/h1H,CPELXLSAUQHCOX-UHFFFAOYSA-N,[H+].[Br-],1.377544373,0,1,G1,80.912,-2.8835,1.112,1,0,0,1,0,8,0,0,0,0,0,19.36597824,0,2
A-3266,sodium formate,"InChI=1S/CH2O2.Na/c2-1-3;/h1H,(H,2,3);/q;+1/p-1",HLBBKKJFGFRGMU-UHFFFAOYSA-M,[Na+].[O-]C=O,1.012544423,0.128538699,7,G5,68.007,-4.6299,6.064,4,2,0,3,0,18,0,0,0,0,40.13,46.1084065,0,13.509775
A-3270,"benzene-1,4-diol","InChI=1S/C6H6O2/c7-5-1-2-6(8)4-3-5/h1-4,7-8H",QIGBRXMKCJKVMJ-UHFFFAOYSA-N,Oc1ccc(O)cc1,-0.196736611,0.129736689,6,G5,110.112,1.0978,29.7716,8,2,2,2,0,42,1,0,0,1,40.46,47.01987062,3.032455532,145.3883389
A-3273,"acid D,L-aspart","InChI=1S/C4H7NO4/c5-2(4(8)9)1-3(6)7/h2H,1,5H2,(H,6,7)(H,8,9)",CKLJMWTZIZZHCS-UHFFFAOYSA-N,NC(CC(O)=O)C(O)=O,-1.229318187,0.359384149,8,G5,133.103,-1.127,27.864,9,3,3,5,3,52,0,0,0,0,100.62,51.08547977,3.632432152,132.529325
A-3274,ethyltriphenylphosphanium iodide,"InChI=1S/C20H20P.HI/c1-2-21(18-12-6-3-7-13-18,19-14-8-4-9-15-19)20-16-10-5-11-17-20;/h3-17H,2H2,1H3;1H/q+1;/p-1",SLAFUPJSGFVWPP-UHFFFAOYSA-M,[I-].CC[P+](c1ccccc1)(c2ccccc2)c3ccccc3,-1.727128194,0,1,G1,418.258,1.0044,95.689,22,0,0,2,4,112,3,0,0,3,0,150.5038486,1.76E-06,584.0085833
A-3275,ammonium trioxovanadate(1-),InChI=1S/V,LEONUFNNVUYDNQ-UHFFFAOYSA-N,[V],-0.814424958,0,1,G1,50.942,-0.0025,0,1,0,0,1,0,5,0,0,0,0,0,19.37662092,0,0
A-3276,2-[(4-aminophenyl)amino]-5-nitrobenzene-1-sulfonic acid,"InChI=1S/C12H11N3O5S/c13-8-1-3-9(4-2-8)14-11-6-5-10(15(16)17)7-12(11)21(18,19)20/h1-7,14H,13H2,(H,18,19,20)",GSITZZUEHIPPMH-UHFFFAOYSA-N,Nc1ccc(Nc2ccc(cc2[S](O)(=O)=O)[N+]([O-])=O)cc1,-1.59828953,0,1,G1,309.303,2.1673,77.0481,21,6,3,9,4,110,2,0,0,2,135.56,119.6598619,2.476591218,787.0402395
A-3278,"1,3,3-trimethyl-2-[(E)-2-(1-methyl-2-phenyl-1H-indol-3-yl)ethenyl]-3H-indol-1-ium chloride","InChI=1S/C28H27N2.ClH/c1-28(2)23-15-9-11-17-25(23)29(3)26(28)19-18-22-21-14-8-10-16-24(21)30(4)27(22)20-12-6-5-7-13-20;/h5-19H,1-4H3;1H/q+1;/p-1",LORKUZBPMQEQET-UHFFFAOYSA-M,[Cl-].Cn1c2ccccc2c(C=CC3=[N+](C)c4ccccc4C3(C)C)c1c5ccccc5,-1.743927996,0,1,G1,426.991,3.5687,127.7084,31,1,0,3,3,156,4,0,1,5,7.94,190.1288779,2.31E-06,1323.898659
A-3279,"3,4-dihydro-2H-pyran","InChI=1S/C5H8O/c1-2-4-6-5-3-1/h2,4H,1,3,5H2",BUDQDWGNQVEFAC-UHFFFAOYSA-N,C1COC=CC1,-1.038398213,0,1,G1,84.118,1.3105,24.326,6,1,0,1,0,34,0,0,1,1,9.23,37.61713053,2.255144721,48.95878456
A-3281,"octane-1,2-diol","InChI=1S/C8H18O2/c1-2-3-4-5-6-8(10)7-9/h8-10H,2-7H2,1H3",AEIJTFQOBWATKX-UHFFFAOYSA-N,CCCCCCC(O)CO,-1.289975217,0,1,G1,146.23,1.31,41.8516,10,2,2,2,6,62,0,0,0,0,40.46,62.88231333,2.886162798,64.27793097
A-3284,ethylbis(propan-2-yl)amine,"InChI=1S/C8H19N/c1-6-9(7(2)3)8(4)5/h7-8H,6H2,1-5H3",JGFZNNIVVJXRND-UHFFFAOYSA-N,CCN(C(C)C)C(C)C,-1.241602263,0.123693261,3,G5,129.247,2.1251,42.652,9,1,0,1,3,56,0,0,0,0,3.24,59.0536795,3.677615682,58.96788691
A-3289,"disodium 4,8-diamino-1,5-dihydroxy-9,10-dioxo-9,10-dihydroanthracene-2,6-disulfonate","InChI=1S/C14H10N2O10S2.Na/c15-3-1-5(27(21,22)23)11(17)9-7(3)13(19)10-8(14(9)20)4(16)2-6(12(10)18)28(24,25)26;/h1-2,17-18H,15-16H2,(H,21,22,23)(H,24,25,26);",CNFAVWPHWCKUOM-UHFFFAOYSA-N,[Na].Nc1cc(c(O)c2C(=O)c3c(N)cc(c(O)c3C(=O)c12)[S](O)(=O)=O)[S](O)(=O)=O,-1.799112619,0,1,G1,453.362,-0.8498,97.2866,29,10,6,15,2,149,2,0,1,3,235.38,184.4745151,3.00E-06,1229.641818
A-3290,"propan-2-yl 2,2,2-trifluoroacetate","InChI=1S/C5H7F3O2/c1-3(2)10-4(9)5(6,7)8/h3H,1-2H3",ASAXRKSDVDALDT-UHFFFAOYSA-N,CC(C)OC(=O)C(F)(F)F,-1.336078753,0.078236632,4,G5,156.103,1.5003,27.283,10,2,0,5,1,60,0,0,0,0,26.3,55.97069302,3.867280781,127.344978
A-3291,disodium 5-({4-[(2-bromoacryloyl)amino]-2-sulfonatophenyl}diazenyl)-4-hydroxy-6-(methylamino)naphthalene-2-sulfonate,"InChI=1S/C20H17BrN4O8S2.2Na/c1-10(21)20(27)23-12-4-6-14(17(8-12)35(31,32)33)24-25-19-15(22-2)5-3-11-7-13(34(28,29)30)9-16(26)18(11)19;;/h3-9,24-25H,1H2,2H3,(H,23,27)(H,28,29,30)(H,31,32,33);;/q;2*+1/p-2",IJUMYNZGVPFZDO-UHFFFAOYSA-L,[Na+].[Na+].CN=C1C=CC2=CC(=CC(=O)C2=C1NNc3ccc(NC(=O)C(Br)=C)cc3[S]([O-])(=O)=O)[S]([O-])(=O)=O,-1.947653209,0,1,G1,629.378,-4.8048,128.2555,37,11,3,17,7,184,1,0,2,3,196.99,264.8706234,3.42E-06,1545.338428
A-3292,sodium 3-[[4-[(2-ethoxy-5-methylphenyl)azo]-1-naphthyl]azo]benzenesulphonate,"InChI=1S/C25H22N4O4S.Na/c1-3-33-25-14-11-17(2)15-24(25)29-28-23-13-12-22(20-9-4-5-10-21(20)23)27-26-18-7-6-8-19(16-18)34(30,31)32;/h4-16H,3H2,1-2H3,(H,30,31,32);/q;+1/p-1",PHBKXNWUWOCVEI-UHFFFAOYSA-M,[Na+].CCOc1ccc(C)cc1N=Nc2ccc(N=Nc3cccc(c3)[S]([O-])(=O)=O)c4ccccc24,-1.847135544,0,1,G1,496.524,4.28582,129.0532,35,8,0,10,7,172,4,0,0,4,115.87,225.371219,3.42E-06,1521.443328