ID,Name,InChI,InChIKey,SMILES,Solubility,SD,Ocurrences,Group,MolWt,MolLogP,MolMR,HeavyAtomCount,NumHAcceptors,NumHDonors,NumHeteroatoms,NumRotatableBonds,NumValenceElectrons,NumAromaticRings,NumSaturatedRings,NumAliphaticRings,RingCount,TPSA,LabuteASA,BalabanJ,BertzCT
A-5111,zinc(2+) ion dinitrate,InChI=1S/2NO3.Zn/c2*2-1(3)4;/q2*-1;+2,ONDPHDOFVYQSGI-UHFFFAOYSA-N,[Zn++].[O-][N+]([O-])=O.[O-][N+]([O-])=O,0.721755153,0,1,G1,189.398,-0.4807,20.7228,9,6,0,9,0,48,0,0,0,0,132.4,61.06596406,-7.20E-08,69.05865003
A-5112,"[(7,7-dimethyloctanoyl)oxy]bario 7,7-dimethyloctanoate","InChI=1S/2C10H20O2.Ba/c2*1-9(2,3)7-10(4,5)6-8(11)12;/h2*6-7H2,1-5H3,(H,11,12);/q;;+2/p-2",ROSHGJWNZDDJFF-UHFFFAOYSA-L,[Ba++].CC(C)(C)CC(C)(C)CC([O-])=O.CC(C)(C)CC(C)(C)CC([O-])=O,-1.698832456,0.276511443,2,G3,479.848,2.7968,100.708,25,4,0,5,6,144,0,0,0,0,80.26,195.1666346,-3.72E-07,372.3925404
A-5113,tetrabutylphosphonium bromide,"InChI=1S/C16H36P.BrH/c1-5-9-13-17(14-10-6-2,15-11-7-3)16-12-8-4;/h5-16H2,1-4H3;1H/q+1;/p-1",RKHXQBLJXBGEKF-UHFFFAOYSA-M,[Br-].CCCC[P+](CCCC)(CCCC)CCCC,0.41483097,0,1,G1,339.342,3.2084,86.02,18,0,0,2,12,112,0,0,0,0,0,127.8106653,0,121.6661751
A-5115,"2-aminopropane-1,3-diol","InChI=1S/C3H9NO2/c4-3(1-5)2-6/h3,5-6H,1-2,4H2",KJJPLEZQSCZCKE-UHFFFAOYSA-N,NC(CO)CO,0.974427117,0,1,G1,91.11,-1.7017,22.147,6,3,3,3,2,38,0,0,0,0,66.48,36.39749346,2.754184786,27.97416845
A-5116,disilver(1+) sulfate,"InChI=1S/2Ag.H2O4S/c;;1-5(2,3)4/h;;(H2,1,2,3,4)/q2*+1;",YPNVIBVEFVRZPJ-UHFFFAOYSA-N,[Ag+].[Ag+].O[S](O)(=O)=O,-1.58498354,0,1,G1,313.815,-0.6578,14.1774,7,2,2,7,0,52,0,0,0,0,74.6,72.27298826,-8.00E-08,92.85820232
A-5117,manganese(2+) ion dichloride,InChI=1S/2ClH.Mn.4H2O/h2*1H;;4*1H2/q;;+2;;;;/p-2,CNFDGXZLMLFIJV-UHFFFAOYSA-L,O.O.O.O.[Cl-].[Cl-].[Mn++],0.582641307,0,1,G1,197.904,-9.2933,14.4552,7,0,0,7,0,53,0,0,0,0,126,64.19329825,0,9.651484454
A-5118,"2-amino-2-(hydroxymethyl)propane-1,3-diol","InChI=1S/C4H11NO3/c5-4(1-6,2-7)3-8/h6-8H,1-3,5H2",LENZDBCJOHFCAS-UHFFFAOYSA-N,NC(CO)(CO)CO,0.790628369,0.069497629,5,G5,121.136,-2.3392,28.1758,8,4,4,4,3,50,0,0,0,0,86.71,47.55666932,3.583212565,54.03910002
A-5119,"N,N-diethylethanaminium bromide","InChI=1S/C6H15N.BrH/c1-4-7(5-2)6-3;/h4-6H2,1-3H3;1H",NRTLTGGGUQIRRT-UHFFFAOYSA-N,[Br-].CC[NH+](CC)CC,0.595197285,0,1,G1,182.105,-3.065,32.5857,8,0,1,2,3,52,0,0,0,0,4.44,62.83649738,0,30
A-5122,tris(2-hydroxyethyl)methylammonium methyl sulphate,"InChI=1S/C7H18NO3.CH4O4S/c1-8(2-5-9,3-6-10)4-7-11;1-5-6(2,3)4/h9-11H,2-7H2,1H3;1H3,(H,2,3,4)/q+1;/p-1",WLTHPEHYBIKNHR-UHFFFAOYSA-M,CO[S]([O-])(=O)=O.C[N+](CCO)(CCO)CCO,0.39266642,0,1,G1,275.323,-2.4971,58.749,17,7,3,9,7,106,0,0,0,0,127.12,101.6033685,0,250.0277095
A-5124,disodium 2-hexadecyl-3-(2-sulfonatophenoxy)benzenesulfonate,"InChI=1S/C28H42O7S2.2Na/c1-2-3-4-5-6-7-8-9-10-11-12-13-14-15-19-24-25(21-18-23-27(24)36(29,30)31)35-26-20-16-17-22-28(26)37(32,33)34;;/h16-18,20-23H,2-15,19H2,1H3,(H,29,30,31)(H,32,33,34);;/q;2*+1/p-2",DWBRKIMUGXLNBO-UHFFFAOYSA-L,[Na+].[Na+].CCCCCCCCCCCCCCCCc1c(Oc2ccccc2[S]([O-])(=O)=O)cccc1[S]([O-])(=O)=O,0.222765354,0,1,G1,598.735,1.3189,142.9004,39,7,0,11,19,208,2,0,0,2,123.63,279.5251877,7.22E-06,1170.184091
A-5125,diammonium 2-[(carboxylatomethyl)disulfanyl]acetate,"InChI=1S/C4H6O4S2.2H3N/c5-3(6)1-9-10-2-4(7)8;;/h1-2H2,(H,5,6)(H,7,8);2*1H3",RZOXALOSBVDYRY-UHFFFAOYSA-N,[NH4+].[NH4+].[O-]C(=O)CSSCC([O-])=O,0.459603052,0,1,G1,216.284,-1.38,46.8996,12,6,2,8,5,74,0,0,0,0,153.26,77.66327194,-4.05E-07,127.01955
A-5126,"D-Glucitol, propoxylated","InChI=1S/C24H50O12/c25-7-1-13-31-19-21(33-15-3-9-27)23(35-17-5-11-29)24(36-18-6-12-30)22(34-16-4-10-28)20-32-14-2-8-26/h21-30H,1-20H2",OJZGCEDLMNSDNY-UHFFFAOYSA-N,OCCCOCC(OCCCO)C(OCCCO)C(OCCCO)C(COCCCO)OCCCO,0.053341445,0,1,G1,530.652,-1.1452,130.8148,36,12,6,12,29,218,0,0,0,0,176.76,214.5795935,5.867180019,393.901141
A-5127,"5-methyl-[1,2,4]triazolo[1,5-a]pyrimidin-7-ol","InChI=1S/C6H6N4O/c1-4-2-5(11)10-6(9-4)7-3-8-10/h2-3H,1H3,(H,7,8,9)",INVVMIXYILXINW-UHFFFAOYSA-N,CC1=CC(=O)N2NC=NC2=N1,-1.347195531,0.005401161,2,G3,150.141,-0.27398,38.3447,11,4,1,5,0,56,2,0,0,2,63.05,61.70342524,3.024307136,441.0241635