ID,Name,InChI,InChIKey,SMILES,Solubility,SD,Ocurrences,Group,MolWt,MolLogP,MolMR,HeavyAtomCount,NumHAcceptors,NumHDonors,NumHeteroatoms,NumRotatableBonds,NumValenceElectrons,NumAromaticRings,NumSaturatedRings,NumAliphaticRings,RingCount,TPSA,LabuteASA,BalabanJ,BertzCT
A-2706,"3-(oleoyloxy)-2,2-bis[(oleoyloxy)methyl]propyl octadec-9-enoate (non-preferred name)","InChI=1S/C77H140O8/c1-5-9-13-17-21-25-29-33-37-41-45-49-53-57-61-65-73(78)82-69-77(70-83-74(79)66-62-58-54-50-46-42-38-34-30-26-22-18-14-10-6-2,71-84-75(80)67-63-59-55-51-47-43-39-35-31-27-23-19-15-11-7-3)72-85-76(81)68-64-60-56-52-48-44-40-36-32-28-24-20-16-12-8-4/h33-40H,5-32,41-72H2,1-4H3/b37-33-,38-34-,39-35-,40-36-",QTIMEBJTEBWHOB-PMDAXIHYSA-N,CCCCCCCC\C=C/CCCCCCCC(=O)OCC(COC(=O)CCCCCCC\C=C/CCCCCCCC)(COC(=O)CCCCCCC\C=C/CCCCCCCC)COC(=O)CCCCCCC\C=C/CCCCCCCC,-7.378019409,0,1,G1,1193.959,24.2956,364.077,85,8,0,8,68,496,0,0,0,0,105.2,526.8167089,5.513952821,1332.644814
A-2707,"3-[(3-methylnonadecanoyl)oxy]-2,2-bis({[(3-methylnonadecanoyl)oxy]methyl})propyl 3-methylnonadecanoate","InChI=1S/C77H148O8/c1-69(2)57-49-41-33-25-17-9-13-21-29-37-45-53-61-73(78)82-65-77(66-83-74(79)62-54-46-38-30-22-14-10-18-26-34-42-50-58-70(3)4,67-84-75(80)63-55-47-39-31-23-15-11-19-27-35-43-51-59-71(5)6)68-85-76(81)64-56-48-40-32-24-16-12-20-28-36-44-52-60-72(7)8/h69-72H,9-68H2,1-8H3",LPGFSDGXTDNTCB-UHFFFAOYSA-N,CC(C)CCCCCCCCCCCCCCC(=O)OCC(COC(=O)CCCCCCCCCCCCCCC(C)C)(COC(=O)CCCCCCCCCCCCCCC(C)C)COC(=O)CCCCCCCCCCCCCCC(C)C,-7.380942773,0,1,G1,1202.023,24.6152,364.173,85,8,0,8,68,504,0,0,0,0,105.2,529.575121,5.425346098,1225.065027
A-2708,"3-hydroxy-2,2-dimethylpropyl heptanoate","InChI=1S/C7H14O2.C5H12O2/c1-2-3-4-5-6-7(8)9;1-5(2,3-6)4-7/h2-6H2,1H3,(H,8,9);6-7H,3-4H2,1-2H3",VRYUGRNJSPQWJC-UHFFFAOYSA-N,CCCCCCC(O)=O.CC(C)(CO)CO,-6.670869008,0,1,G1,234.336,2.0386,64.3474,16,3,3,4,7,98,0,0,0,0,77.76,98.3036688,0,160.4016955
A-2709,3-hydroxy-2-(hydroxymethyl)-2-{[(9Z)-octadec-9-enoyloxy]methyl}propyl (9Z)-octadec-9-enoate,"InChI=1S/C41H76O6/c1-3-5-7-9-11-13-15-17-19-21-23-25-27-29-31-33-39(44)46-37-41(35-42,36-43)38-47-40(45)34-32-30-28-26-24-22-20-18-16-14-12-10-8-6-4-2/h17-20,42-43H,3-16,21-38H2,1-2H3/b19-17+,20-18+",BJXXCOMGRRCAGN-XPWSMXQVSA-N,CCCCCCCC/C=C/CCCCCCCC(=O)OCC(CO)(CO)COC(=O)CCCCCCC\C=C\CCCCCCCC,-7.123886253,0,1,G1,665.053,11.1188,197.4266,47,6,2,6,36,276,0,0,0,0,93.06,290.0963317,3.80655768,684.2166113
A-2710,3-methylbutyl dodecanoate,"InChI=1S/C17H34O2/c1-4-5-6-7-8-9-10-11-12-13-17(18)19-15-14-16(2)3/h16H,4-15H2,1-3H3",FVKRIDSRWFEQME-UHFFFAOYSA-N,CCCCCCCCCCCC(=O)OCCC(C)C,-6.733128222,0,1,G1,270.457,5.4966,82.258,19,2,0,2,13,114,0,0,0,0,26.3,119.8533922,3.14074179,199.4387457
A-2712,"Decanoic acid, mixed diesters with octanoic acid and propylene glycol","InChI=1S/C10H20O2.C8H16O2.C3H8O2/c1-2-3-4-5-6-7-8-9-10(11)12;1-2-3-4-5-6-7-8(9)10;1-3(5)2-4/h2-9H2,1H3,(H,11,12);2-7H2,1H3,(H,9,10);3-5H,2H2,1H3",YZWQUQVFVLJWCS-UHFFFAOYSA-N,CCCCCCCCCC(O)=O.CCCCCCCC(O)=O.CC(O)CO,-6.894954848,0,1,G1,392.577,5.0027,110.0242,27,4,4,6,15,164,0,0,0,0,115.06,165.5497348,-3.47E-07,305.0469574
A-2713,"Decanoic acid, mixed esters with octanoic acid and pentaerythritol","InChI=1S/C10H20O2.C8H16O2.C5H12O4/c1-2-3-4-5-6-7-8-9-10(11)12;1-2-3-4-5-6-7-8(9)10;6-1-5(2-7,3-8)4-9/h2-9H2,1H3,(H,11,12);2-7H2,1H3,(H,9,10);6-9H,1-4H2",GFFYVKLAGBXHIN-UHFFFAOYSA-N,CCCCCCCCCC(O)=O.CCCCCCCC(O)=O.OCC(CO)(CO)CO,-6.956772372,0,1,G1,452.629,3.5852,122.0338,31,6,6,8,18,188,0,0,0,0,155.52,187.8680866,-3.84E-07,366.2629857
A-2714,"Fatty acids, C5-9, hexaesters with dipentaerythritol","InChI=1S/C15H30O8/c1-2-3-4-13(21)23-12-15(8-19,9-20)11-22-10-14(5-16,6-17)7-18/h16-20H,2-12H2,1H3",ITJIINAVMOBHSF-UHFFFAOYSA-N,CCCCC(=O)OCC(CO)(CO)COCC(CO)(CO)CO,-6.8304565,0,1,G1,338.397,-1.3293,81.598,23,8,5,8,14,138,0,0,0,0,136.68,136.2082219,4.503552654,304.3340748
A-2715,"N,N'-bis(2,6-diisopropylphenyl)carbodiimide","InChI=1S/C25H34N2/c1-16(2)20-11-9-12-21(17(3)4)24(20)26-15-27-25-22(18(5)6)13-10-14-23(25)19(7)8/h9-14,16-19H,1-8H3",XLDBGFGREOMWSL-UHFFFAOYSA-N,CC(C)c1cccc(C(C)C)c1N=C=Nc2c(cccc2C(C)C)C(C)C,-6.860411082,0,1,G1,362.561,8.3173,118.423,27,2,0,2,6,144,2,0,0,2,24.72,165.0233898,2.617446895,715.3975277
A-2718,butyl hexadecanoate butyl octadecanoate,"InChI=1S/C22H44O2.C20H40O2/c1-3-5-7-8-9-10-11-12-13-14-15-16-17-18-19-20-22(23)24-21-6-4-2;1-3-5-7-8-9-10-11-12-13-14-15-16-17-18-20(21)22-19-6-4-2/h3-21H2,1-2H3;3-19H2,1-2H3",FQWCYZXAJQAXBD-UHFFFAOYSA-N,CCCCCCCCCCCCCCCCCC(=O)OCCCC.CCCCCCCCCCCCCCCC(=O)OCCCC,-7.116029628,0,1,G1,653.13,14.4022,201.592,46,4,0,4,36,276,0,0,0,0,52.6,289.2578435,0,575.9921372
A-2720,diisodecyl azelate,"InChI=1S/C29H56O4/c1-26(2)20-14-8-6-12-18-24-32-28(30)22-16-10-5-11-17-23-29(31)33-25-19-13-7-9-15-21-27(3)4/h26-27H,5-25H2,1-4H3",WLLCYXDFVBWGBU-UHFFFAOYSA-N,CC(C)CCCCCCCOC(=O)CCCCCCCC(=O)OCCCCCCCC(C)C,-6.971983321,0,1,G1,468.763,8.7967,139.317,33,4,0,4,24,196,0,0,0,0,52.6,205.5077649,3.291908319,404.9028215
A-2721,ditetradecyl but-2-enedioate,"InChI=1S/C32H60O4/c1-3-5-7-9-11-13-15-17-19-21-23-25-29-35-31(33)27-28-32(34)36-30-26-24-22-20-18-16-14-12-10-8-6-4-2/h27-28H,3-26,29-30H2,1-2H3/b28-27+",DYVHFPDDBMMBAX-BYYHNAKLSA-N,CCCCCCCCCCCCCCOC(=O)\C=C\C(=O)OCCCCCCCCCCCCCC,-7.007600998,0,1,G1,508.828,10.0312,153.214,36,4,0,4,28,212,0,0,0,0,52.6,223.9129882,3.36636444,456.3840787
A-2722,docosanamide,"InChI=1S/C22H45NO/c1-2-3-4-5-6-7-8-9-10-11-12-13-14-15-16-17-18-19-20-21-22(23)24/h2-21H2,1H3,(H2,23,24)",ORAWFNKFUWGRJG-UHFFFAOYSA-N,CCCCCCCCCCCCCCCCCCCCCC(N)=O,-6.832007908,0,1,G1,339.608,7.2936,107.2084,24,1,1,2,20,144,0,0,0,0,43.09,151.9044482,2.965378939,252.3544698
A-2723,docosyl docosanoate,"InChI=1S/C44H88O2/c1-3-5-7-9-11-13-15-17-19-21-23-25-27-29-31-33-35-37-39-41-43-46-44(45)42-40-38-36-34-32-30-28-26-24-22-20-18-16-14-12-10-8-6-4-2/h3-43H2,1-2H3",NJIMZDGGLTUCPX-UHFFFAOYSA-N,CCCCCCCCCCCCCCCCCCCCCCOC(=O)CCCCCCCCCCCCCCCCCCCCC,-7.113399141,0,1,G1,649.186,16.1734,206.987,46,2,0,2,41,276,0,0,0,0,26.3,291.7068293,3.138672019,544.0252588
A-2724,dodecyl (9Z)-octadec-9-enoate,"InChI=1S/C30H58O2/c1-3-5-7-9-11-13-15-16-17-18-19-20-22-24-26-28-30(31)32-29-27-25-23-21-14-12-10-8-6-4-2/h16-17H,3-15,18-29H2,1-2H3/b17-16+",OXPCWUWUWIWSGI-WUKNDPDISA-N,CCCCCCCCCCCCOC(=O)CCCCCCC\C=C\CCCCCCCC,-6.955006196,0,1,G1,450.792,10.488,142.255,32,2,0,2,26,190,0,0,0,0,26.3,201.9080366,3.195502788,388.2928312
A-2725,ethyl (9Z)-hexadec-9-enoate ethyl (9Z)-octadec-9-enoate ethyl hexadecanoate ethyl tetradecanoate,"InChI=1S/C20H38O2.C18H36O2.C18H34O2.C16H32O2/c1-3-5-6-7-8-9-10-11-12-13-14-15-16-17-18-19-20(21)22-4-2;2*1-3-5-6-7-8-9-10-11-12-13-14-15-16-17-18(19)20-4-2;1-3-5-6-7-8-9-10-11-12-13-14-15-16(17)18-4-2/h11-12H,3-10,13-19H2,1-2H3;3-17H2,1-2H3;9-10H,3-8,11-17H2,1-2H3;3-15H2,1-2H3/b12-11-;;10-9-;",RYYGJLVSNHAPGS-KHGNKIMXSA-N,CCCCCCCCCCCCCCCC(=O)OCC.CCCCCCCCCCCCCC(=O)OCC.CCCCCCCC\C=C/CCCCCCCC(=O)OCC.CCCCCC\C=C/CCCCCCCC(=O)OCC,-7.355606283,0,1,G1,1133.904,23.6752,347.592,80,8,0,8,58,476,0,0,0,0,105.2,499.3886979,-4.82E-07,1245.782352
A-2726,hexadecyl 2-ethylhexanoate,"InChI=1S/C24H48O2/c1-4-7-9-10-11-12-13-14-15-16-17-18-19-20-22-26-24(25)23(6-3)21-8-5-2/h23H,4-22H2,1-3H3",XJNUECKWDBNFJV-UHFFFAOYSA-N,CCCCCCCCCCCCCCCCOC(=O)C(CC)CCCC,-6.867639522,0,1,G1,368.646,8.2273,114.577,26,2,0,2,20,156,0,0,0,0,26.3,164.407987,3.268101548,287.9352304
A-2727,hexyl dodecanoate,"InChI=1S/C18H36O2/c1-3-5-7-9-10-11-12-13-14-16-18(19)20-17-15-8-6-4-2/h3-17H2,1-2H3",CMBYOWLFQAFZCP-UHFFFAOYSA-N,CCCCCCCCCCCC(=O)OCCCCCC,-6.755087841,0,1,G1,284.484,6.0308,86.945,20,2,0,2,15,120,0,0,0,0,26.3,126.2183343,3.111581102,201.5949031
A-2728,"isooctadecanoic acid, monoester with glycerol","InChI=1S/C21H42O4/c1-19(2)15-13-11-9-7-5-3-4-6-8-10-12-14-16-21(24)25-20(17-22)18-23/h19-20,22-23H,3-18H2,1-2H3",MQXVQTFGCRTCRG-UHFFFAOYSA-N,CC(C)CCCCCCCCCCCCCCC(=O)OC(CO)CO,-6.855595469,0,1,G1,358.563,5.0002,103.5276,25,4,2,4,18,150,0,0,0,0,66.76,154.9016281,3.197948525,287.6206366
A-2729,magnesium diniobate,InChI=1S/2Mg.2Nb.7O/q2*+2;2*+5;7*-2,CWMQWEHVVUJOBW-UHFFFAOYSA-N,[O--].[O--].[O--].[O--].[O--].[O--].[O--].[Mg++].[Mg++].[Nb+5].[Nb+5],-6.840626685,0,1,G1,346.415,-1.5982,16.3135,11,0,0,11,0,56,0,0,0,0,199.5,127.5403491,0,14.40226335
A-2730,octadec-9-en-1-yl docos-13-enoate,"InChI=1S/C40H76O2/c1-3-5-7-9-11-13-15-17-19-21-22-23-24-26-28-30-32-34-36-38-40(41)42-39-37-35-33-31-29-27-25-20-18-16-14-12-10-8-6-4-2/h17-20H,3-16,21-39H2,1-2H3/b19-17-,20-18-",SZAMSYKZCSDVBH-CLFAGFIQSA-N,CCCCCCCC\C=C/CCCCCCCCCCCC(=O)OCCCCCCCC\C=C/CCCCCCCC,-7.071179207,0,1,G1,589.046,14.165,188.331,42,2,0,2,35,248,0,0,0,0,26.3,264.8678548,3.213084403,563.9858269
A-2731,octadec-9-en-1-yl octadec-9-enoate,"InChI=1S/C36H68O2/c1-3-5-7-9-11-13-15-17-19-21-23-25-27-29-31-33-35-38-36(37)34-32-30-28-26-24-22-20-18-16-14-12-10-8-6-4-2/h17,19-20,22H,3-16,18,21,23-35H2,1-2H3/b19-17-,22-20-",ZWHZXVJDSAKMBA-MGXYOJEMSA-N,CCCCCCCCC\C=C/CCCCCCC(=O)OCCCCCCCC\C=C/CCCCCCCC,-7.027706683,0,1,G1,532.938,12.6046,169.863,38,2,0,2,31,224,0,0,0,0,26.3,239.4080863,3.233726919,507.4716454
A-2732,octyl octanoate,"InChI=1S/C16H32O2/c1-3-5-7-9-11-13-15-18-16(17)14-12-10-8-6-4-2/h3-15H2,1-2H3",DJNTZVRUYMHBTD-UHFFFAOYSA-N,CCCCCCCCOC(=O)CCCCCCC,-6.709998828,0,1,G1,256.43,5.2506,77.711,18,2,0,2,13,108,0,0,0,0,26.3,113.4884501,3.118900488,177.9357738
A-2733,tetradecyl octadec-9-enoate,"InChI=1S/C32H62O2/c1-3-5-7-9-11-13-15-17-18-19-20-22-24-26-28-30-32(33)34-31-29-27-25-23-21-16-14-12-10-8-6-4-2/h17-18H,3-16,19-31H2,1-2H3/b18-17-",DHZWALZKPWZSMA-ZCXUNETKSA-N,CCCCCCCCCCCCCCOC(=O)CCCCCCC\C=C/CCCCCCCC,-6.98122586,0,1,G1,478.846,11.2682,151.489,34,2,0,2,28,202,0,0,0,0,26.3,214.6379209,3.192392081,415.2351097
A-2734,"tris(2-ethylhexyl) 2-acetoxypropane-1,2,3-tricarboxylate","InChI=1S/C32H58O8/c1-8-14-17-26(11-4)22-37-29(34)20-32(40-25(7)33,31(36)39-24-28(13-6)19-16-10-3)21-30(35)38-23-27(12-5)18-15-9-2/h26-28H,8-24H2,1-7H3",FRDNONBEXWDRDM-UHFFFAOYSA-N,CCCCC(CC)COC(=O)CC(CC(=O)OCC(CC)CCCC)(OC(C)=O)C(=O)OCC(CC)CCCC,-7.057520047,0,1,G1,570.808,7.3473,156.526,40,8,0,8,24,234,0,0,0,0,105.2,243.1527259,5.818433274,685.7039953
A-2736,"2-(2H-1,2,3-benzotriazol-2-yl)-4,6-bis(2-phenylpropan-2-yl)phenol","InChI=1S/C30H29N3O/c1-29(2,21-13-7-5-8-14-21)23-19-24(30(3,4)22-15-9-6-10-16-22)28(34)27(20-23)33-31-25-17-11-12-18-26(25)32-33/h5-20,34H,1-4H3",OLFNXLXEGXRUOI-UHFFFAOYSA-N,CC(C)(c1ccccc1)c2cc(n3nc4ccccc4n3)c(O)c(c2)C(C)(C)c5ccccc5,-7.048812621,0.451544993,2,G3,447.582,6.7779,137.6698,34,4,1,4,5,170,5,0,0,5,50.94,200.0635717,1.77660778,1417.976223
A-2737,"4,4',4''-butane-1,1,3-triyltris(2-tert-butyl-5-methylphenol)","InChI=1S/C37H52O3/c1-21(25-18-29(35(5,6)7)32(38)15-22(25)2)14-28(26-19-30(36(8,9)10)33(39)16-23(26)3)27-20-31(37(11,12)13)34(40)17-24(27)4/h15-21,28,38-40H,14H2,1-13H3",PRWJPWSKLXYEPD-UHFFFAOYSA-N,CC(CC(c1cc(c(O)cc1C)C(C)(C)C)c2cc(c(O)cc2C)C(C)(C)C)c3cc(c(O)cc3C)C(C)(C)C,-7.13419305,0,1,G1,544.82,9.94686,169.5064,40,3,3,3,5,218,3,0,0,3,60.69,242.862193,2.297072473,1321.609353
A-2738,"4-[(E)-2-(5-cyano-2-hydroxy-1,4-dimethyl-6-oxo-1,6-dihydropyridin-3-yl)diazen-1-yl]-N-(2-ethylhexyl)benzamide","InChI=1S/C23H29N5O3/c1-5-7-8-16(6-2)14-25-21(29)17-9-11-18(12-10-17)26-27-20-15(3)19(13-24)22(30)28(4)23(20)31/h9-12,16,26H,5-8,14H2,1-4H3,(H,25,29)/b27-20-",ATCLRTKFQOUIKP-OOAXWGSJSA-N,CCCCC(CC)CNC(=O)c1ccc(N\N=C2\C(=C(C#N)C(=O)N(C)C2=O)C)cc1,-7.024810856,0,1,G1,423.517,3.23938,119.2289,31,6,2,8,9,164,1,0,1,2,114.66,182.5421474,2.046496952,940.9537843
A-2739,"5-[(E)-2-(3,4-dichlorophenyl)diazen-1-yl]-6-hydroxy-1,4-dimethyl-2-oxo-1,2-dihydropyridine-3-carbonitrile","InChI=1S/C14H10Cl2N4O2/c1-7-9(6-17)13(21)20(2)14(22)12(7)19-18-8-3-4-10(15)11(16)5-8/h3-5,18H,1-2H3/b19-12+",XJQKXIISBODNEJ-XDHOZWIPSA-N,CN1C(=O)C(=N/Nc2ccc(Cl)c(Cl)c2)/C(=C(C#N)C1=O)C,-6.925783782,0,1,G1,337.166,2.59998,83.6097,22,5,1,8,2,112,1,0,1,2,85.56,136.1528165,2.39085031,777.5377831
A-2740,"tris[(3,5-di-tert-butyl-4-hydroxyphenyl)methyl]-1,3,5-triazinane-2,4,6-trione","InChI=1S/C48H69N3O6/c1-43(2,3)31-19-28(20-32(37(31)52)44(4,5)6)25-49-40(55)50(26-29-21-33(45(7,8)9)38(53)34(22-29)46(10,11)12)42(57)51(41(49)56)27-30-23-35(47(13,14)15)39(54)36(24-30)48(16,17)18/h19-24,52-54H,25-27H2,1-18H3",VNQNXQYZMPJLQX-UHFFFAOYSA-N,CC(C)(C)c1cc(CN2C(=O)N(Cc3cc(c(O)c(c3)C(C)(C)C)C(C)(C)C)C(=O)N(Cc4cc(c(O)c(c4)C(C)(C)C)C(C)(C)C)C2=O)cc(c1O)C(C)(C)C,-7.292308693,0.698970004,2,G2,784.095,9.2184,233.0484,57,9,3,9,6,312,4,0,0,4,126.69,339.6122488,2.116423,1964.324922
A-2741,2-benzoyl-5-[3-(4-benzoyl-3-hydroxyphenoxy)-2-hydroxypropoxy]phenol,"InChI=1S/C29H24O7/c30-21(17-35-22-11-13-24(26(31)15-22)28(33)19-7-3-1-4-8-19)18-36-23-12-14-25(27(32)16-23)29(34)20-9-5-2-6-10-20/h1-16,21,30-32H,17-18H2",VZYBFCDYFROPPK-UHFFFAOYSA-N,OC(COc1ccc(c(O)c1)C(=O)c2ccccc2)COc3ccc(c(O)c3)C(=O)c4ccccc4,-7.138754703,0,1,G1,484.504,4.3785,132.9594,36,7,3,7,10,182,4,0,0,4,113.29,207.3602322,1.298863701,1245.923791
A-2742,(2-methyldodecyl)(tridecyl)amine; ditridecylamine,"InChI=1S/2C26H55N/c1-4-6-8-10-12-14-15-16-18-20-22-24-27-25-26(3)23-21-19-17-13-11-9-7-5-2;1-3-5-7-9-11-13-15-17-19-21-23-25-27-26-24-22-20-18-16-14-12-10-8-6-4-2/h26-27H,4-25H2,1-3H3;27H,3-26H2,1-2H3",MQIFMNUVBUCDBA-UHFFFAOYSA-N,CCCCCCCCCCCCCNCCCCCCCCCCCCC.CCCCCCCCCCCCCNCC(C)CCCCCCCCCC,-7.405668446,1.761439373,2,G2,763.466,18.2519,251.5134,54,2,2,2,47,328,0,0,0,0,24.06,345.4568544,0,566.9284447
A-2743,"(E)-N,6,6-trimethyl-N-(naphthalen-1-ylmethyl)hept-2-en-4-yn-1-amine","InChI=1S/C21H25N/c1-21(2,3)15-8-5-9-16-22(4)17-19-13-10-12-18-11-6-7-14-20(18)19/h5-7,9-14H,16-17H2,1-4H3/b9-5+",DOMXUEMWDBAQBQ-WEVVVXLNSA-N,CN(C\C=C\C#CC(C)(C)C)Cc1cccc2ccccc12,-4.464546178,0,1,G1,291.438,4.8773,96.653,22,1,0,1,4,114,2,0,0,2,3.24,134.1968869,1.977713433,702.4950518
A-2744,2-methyl-2-[(2-methylundecan-2-yl)disulfanyl]undecane,"InChI=1S/C24H50S2/c1-7-9-11-13-15-17-19-21-23(3,4)25-26-24(5,6)22-20-18-16-14-12-10-8-2/h7-22H2,1-6H3",LEDIWWJKWAMGLD-UHFFFAOYSA-N,CCCCCCCCCC(C)(C)SSC(C)(C)CCCCCCCCC,-7.127966051,1.031073953,2,G2,402.798,10.2064,128.56,26,2,0,2,19,158,0,0,0,0,0,174.7791018,3.722993691,266.5857684
A-2745,bis(2-ethylhexyl) carbonate,"InChI=1S/C17H34O3/c1-5-9-11-15(7-3)13-19-17(18)20-14-16(8-4)12-10-6-2/h15-16H,5-14H2,1-4H3",PXTQQOLKZBLYDY-UHFFFAOYSA-N,CCCCC(CC)COC(=O)OCC(CC)CCCC,-6.979936669,0,1,G1,286.456,5.5724,83.912,20,3,0,3,12,120,0,0,0,0,35.53,124.9669374,3.795028668,206.2750061
A-2747,dibenzyl {[bis(benzyloxy)phosphoryl]oxy}phosphonate,"InChI=1S/C28H28O7P2/c29-36(31-21-25-13-5-1-6-14-25,32-22-26-15-7-2-8-16-26)35-37(30,33-23-27-17-9-3-10-18-27)34-24-28-19-11-4-12-20-28/h1-20H,21-24H2",NSBNXCZCLRBQTA-UHFFFAOYSA-N,O=[P](OCc1ccccc1)(OCc2ccccc2)O[P](=O)(OCc3ccccc3)OCc4ccccc4,-7.254042677,0,1,G1,538.473,8.0864,141.222,37,7,0,9,14,192,4,0,0,4,80.29,216.7294017,1.541326289,1105.723651
A-2748,4-(4-{2-[4-(4-aminophenoxy)phenyl]propan-2-yl}phenoxy)aniline,"InChI=1S/C27H26N2O2/c1-27(2,19-3-11-23(12-4-19)30-25-15-7-21(28)8-16-25)20-5-13-24(14-6-20)31-26-17-9-22(29)10-18-26/h3-18H,28-29H2,1-2H3",KMKWGXGSGPYISJ-UHFFFAOYSA-N,CC(C)(c1ccc(Oc2ccc(N)cc2)cc1)c3ccc(Oc4ccc(N)cc4)cc3,-7.19172722,0,1,G1,410.517,6.7615,126.8688,31,4,2,4,6,156,4,0,0,4,70.5,182.6043839,1.464476039,1038.990976
A-2750,(benzoyloxy)(hydroxy)alumanyl octadecanoate,"InChI=1S/C18H36O2.C7H6O2.Al.H2O/c1-2-3-4-5-6-7-8-9-10-11-12-13-14-15-16-17-18(19)20;8-7(9)6-4-2-1-3-5-6;;/h2-17H2,1H3,(H,19,20);1-5H,(H,8,9);;1H2/q;;+3;/p-3",PMWKMVGWLYXGLN-UHFFFAOYSA-K,CCCCCCCCCCCCCCCCCC(=O)O[Al](O)OC(=O)c1ccccc1,-7.253899898,0,1,G1,448.58,6.6253,125.4683,31,5,1,6,19,174,1,0,0,1,72.83,193.4712982,1.882758307,578.5348999
A-2751,"3-(Diethylamino)-7-oxo-7H-(1)benzopyrano(3',2':3,4)pyrido(1,2-a)benzimidazole-6-carbonitrile","InChI=1S/C23H18N4O2/c1-3-26(4-2)15-10-9-14-11-16-21(29-20(14)12-15)17(13-24)23(28)27-19-8-6-5-7-18(19)25-22(16)27/h5-12H,3-4H2,1-2H3",UTTFXJZCRVZYQF-UHFFFAOYSA-N,CCN(CC)c1ccc2C=C3C(=C(C#N)C(=O)n4c5ccccc5nc34)Oc2c1,-7.202332762,0,1,G1,382.423,4.46498,114.522,29,6,0,6,3,142,5,0,0,5,74.54,165.7576679,1.934370951,1517.612204
A-2752,"N-{2-[(E)-2-(2,6-dicyano-4-methylphenyl)diazen-1-yl]-5-(diethylamino)phenyl}methanesulfonamide","InChI=1S/C20H22N6O2S/c1-5-26(6-2)17-7-8-18(19(11-17)25-29(4,27)28)23-24-20-15(12-21)9-14(3)10-16(20)13-22/h7-11,25H,5-6H2,1-4H3",NSLHLMXJNOITEZ-UHFFFAOYSA-N,CCN(CC)c1ccc(N=Nc2c(cc(C)cc2C#N)C#N)c(N[S](C)(=O)=O)c1,-7.233105094,0,1,G1,410.503,4.37148,113.2545,29,7,1,9,7,150,2,0,0,2,121.71,170.7104432,2.581224188,1087.631149
A-2753,"methyl (9E,12E,15E)-octadeca-9,12,15-trienoate methyl (9Z)-octadec-9-enoate methyl (9Z,12Z)-octadeca-9,12-dienoate methyl hexadecanoate methyl octadecanoate","InChI=1S/C19H38O2.C19H36O2.C19H34O2.C19H32O2.C17H34O2/c4*1-3-4-5-6-7-8-9-10-11-12-13-14-15-16-17-18-19(20)21-2;1-3-4-5-6-7-8-9-10-11-12-13-14-15-16-17(18)19-2/h3-18H2,1-2H3;10-11H,3-9,12-18H2,1-2H3;7-8,10-11H,3-6,9,12-18H2,1-2H3;4-5,7-8,10-11H,3,6,9,12-18H2,1-2H3;3-16H2,1-2H3/b;11-10-;8-7-,11-10-;5-4+,8-7+,11-10+;",SWOKSHSHKMKETQ-WIBNQTOSSA-N,CCCCCCCCCCCCCCCCCC(=O)OC.CCCCCCCCCCCCCCCC(=O)OC.CCCCCCCC\C=C/CCCCCCCC(=O)OC.CCCCC/C=C\C\C=C/CCCCCCCC(=O)OC.CC/C=C/C/C=C/C/C=C/CCCCCCCC(=O)OC,-7.800359899,0,1,G1,1452.405,29.9803,448.012,103,10,0,10,72,606,0,0,0,0,131.5,640.5749686,-3.89E-07,1846.10533
A-2754,2-[[4-[(2-cyano-3-nitrophenyl)azo]-m-tolyl](2-acetoxyethyl)amino]ethyl acetate,"InChI=1S/C21H21N5O6/c1-15(27)31-11-9-25(10-12-32-16(2)28)19-5-3-18(4-6-19)23-24-21-8-7-20(26(29)30)13-17(21)14-22/h3-8,13H,9-12H2,1-2H3",GRMDKKJYMUDEJO-UHFFFAOYSA-N,CC(=O)OCCN(CCOC(C)=O)c1ccc(cc1)N=Nc2ccc(cc2C#N)[N+]([O-])=O,-7.300465045,0,1,G1,439.428,3.81448,113.9084,32,10,0,11,10,166,2,0,0,2,147.49,183.5752779,2.125292798,1025.636025
A-2755,"1-bromo-1,1,2,2,3,3,4,4,5,5,6,6,7,7,8,8,8-heptadecafluorooctane","InChI=1S/C8BrF17/c9-7(22,23)5(18,19)3(14,15)1(10,11)2(12,13)4(16,17)6(20,21)8(24,25)26",WTWWXOGTJWMJHI-UHFFFAOYSA-N,FC(F)(F)C(F)(F)C(F)(F)C(F)(F)C(F)(F)C(F)(F)C(F)(F)C(F)(F)Br,-7.397033995,0,1,G1,498.958,6.3482,49.611,26,0,0,18,6,158,0,0,0,0,0,137.9754953,6.612913906,473.8614144
A-2756,3-[ethyl[4-[(4-nitrophenyl)azo]phenyl]amino]propiononitrile,"InChI=1S/C17H17N5O2/c1-2-21(13-3-12-18)16-8-4-14(5-9-16)19-20-15-6-10-17(11-7-15)22(23)24/h4-11H,2-3,13H2,1H3",ZSPPPAFDNHYXNW-UHFFFAOYSA-N,CCN(CCC#N)c1ccc(cc1)N=Nc2ccc(cc2)[N+]([O-])=O,-7.208650928,0,1,G1,323.356,4.75018,91.8314,24,6,0,7,7,122,2,0,0,2,94.89,139.5653748,2.048173162,748.0455239
A-2757,Pigment red 149,"InChI=1S/C40H26N2O4/c1-19-13-20(2)16-23(15-19)41-37(43)29-9-5-25-27-7-11-31-36-32(40(46)42(39(31)45)24-17-21(3)14-22(4)18-24)12-8-28(34(27)36)26-6-10-30(38(41)44)35(29)33(25)26/h5-18H,1-4H3",FDXVHZCFTCIKDD-UHFFFAOYSA-N,Cc1cc(C)cc(c1)N2C(=O)c3ccc4c5ccc6C(=O)N(c7cc(C)cc(C)c7)C(=O)c8ccc(c9ccc(C2=O)c3c49)c5c68,-7.476148795,0.57745098,2,G2,598.658,7.17508,187.718,46,6,0,6,2,220,9,0,0,9,78.14,260.5587243,1.431347092,2650.65503
A-2759,ammonium iron(3+) hexakis(cyano-C)ferrate(4-),InChI=1S/6CN.2Fe.H3N/c6*1-2;;;/h;;;;;;;;1H3/q6*-1;+2;+3;/p+1,ILZWGESBVHGTRX-UHFFFAOYSA-O,[NH4+].[Fe++].[Fe+3].[C-]#N.[C-]#N.[C-]#N.[C-]#N.[C-]#N.[C-]#N,-7.155088449,0,1,G1,285.837,0.94942,35.7928,15,6,1,9,0,79,0,0,0,0,179.24,111.2755864,-3.96E-09,96.5007495
A-2760,"Methyl 3-[n-ethyl-4-[(5-nitro-2,1-benzothiazol-3-yl)azo]anilino]propanoate","InChI=1S/C19H19N5O4S/c1-3-23(11-10-18(25)28-2)14-6-4-13(5-7-14)20-21-19-16-12-15(24(26)27)8-9-17(16)22-29-19/h4-9,12H,3,10-11H2,1-2H3",VHLFTCNAACYPDY-UHFFFAOYSA-N,CCN(CCC(=O)OC)c1ccc(cc1)N=Nc2snc3ccc(cc23)[N+]([O-])=O,-7.315402454,0,1,G1,413.459,5.0093,111.4124,29,9,0,10,8,150,3,0,0,3,110.29,170.4955704,1.74406887,1048.439045
A-2761,tetradecyl tetradecanoate,"InChI=1S/C28H56O2/c1-3-5-7-9-11-13-15-17-19-21-23-25-27-30-28(29)26-24-22-20-18-16-14-12-10-8-6-4-2/h3-27H2,1-2H3",DZKXJUASMGQEMA-UHFFFAOYSA-N,CCCCCCCCCCCCCCOC(=O)CCCCCCCCCCCCC,-7.327107482,0,1,G1,424.754,9.9318,133.115,30,2,0,2,25,180,0,0,0,0,26.3,189.8677554,3.134284357,326.6007801