ID,Name,InChI,InChIKey,SMILES,Solubility,SD,Ocurrences,Group,MolWt,MolLogP,MolMR,HeavyAtomCount,NumHAcceptors,NumHDonors,NumHeteroatoms,NumRotatableBonds,NumValenceElectrons,NumAromaticRings,NumSaturatedRings,NumAliphaticRings,RingCount,TPSA,LabuteASA,BalabanJ,BertzCT
A-4810,"2,3,3-trimethyl-3H-indole-5-carboxylic acid","InChI=1S/C12H13NO2/c1-7-12(2,3)9-6-8(11(14)15)4-5-10(9)13-7/h4-6H,1-3H3,(H,14,15)",QUDAPQXQGBIUAR-UHFFFAOYSA-N,CC1=Nc2ccc(cc2C1(C)C)C(O)=O,-2.662589054,0,1,G1,203.241,2.7684,59.1963,15,2,1,3,1,78,1,0,1,2,49.66,88.46630299,2.598739651,472.5105053
A-4812,2-methylcyclohexyl acetate,"InChI=1S/C9H16O2/c1-7-5-3-4-6-9(7)11-8(2)10/h7,9H,3-6H2,1-2H3",AKIIJALHGMKJEJ-UHFFFAOYSA-N,CC1CCCCC1OC(C)=O,-2.550297857,0,1,G1,156.225,2.1282,43.186,11,2,0,2,1,64,0,1,1,1,26.3,67.92802412,2.350779036,142.4981594
A-4815,1-chloro-2-nitrobenzene,InChI=1S/C6H4ClNO2/c7-5-3-1-2-4-6(5)8(9)10/h1-4H,BFCFYVKQTRLZHA-UHFFFAOYSA-N,[O-][N+](=O)c1ccccc1Cl,-2.563966491,0.151386245,6,G5,157.556,2.2482,38.1064,10,2,0,4,1,52,1,0,0,1,43.14,62.38764507,3.152941447,261.6796584
A-4816,2-ethylhexyl 2-hydroxypropanoate,"InChI=1S/C11H22O3/c1-4-6-7-10(5-2)8-14-11(13)9(3)12/h9-10,12H,4-8H2,1-3H3",FECDACOUYKFOOP-UHFFFAOYSA-N,CCCCC(CC)COC(=O)C(C)O,-2.67352571,0,1,G1,202.294,2.1268,55.9458,14,3,1,3,7,84,0,0,0,0,46.53,86.45797325,3.661036491,154.6116337
A-4817,bromobenzene,InChI=1S/C6H5Br/c7-6-4-2-1-3-5-6/h1-5H,QARVLSVVCXYDNA-UHFFFAOYSA-N,Brc1ccccc1,-2.568561457,0.031438492,4,G5,157.01,2.4491,34.142,7,0,0,1,0,36,1,0,0,1,0,51.29895073,3.02146531,134.1073697
A-4819,trisodium hexafluoroalumanetriuide,InChI=1S/Al.6FH.3Na/h;6*1H;;;/q+3;;;;;;;3*+1/p-6,REHXRBDMVPYGJX-UHFFFAOYSA-H,[F-].[F-].[F-].[F-].[F-].[F-].[Na+].[Na+].[Na+].[Al+3],-2.698845903,0.183503825,3,G5,209.94,-27.3448,5.754,10,0,0,10,0,48,0,0,0,0,0,131.8541674,0,12.95461844
A-4821,1-methyl-4-nitrobenzene,"InChI=1S/C7H7NO2/c1-6-2-4-7(5-3-6)8(9)10/h2-5H,1H3",ZPTVNYMJQHSSEA-UHFFFAOYSA-N,Cc1ccc(cc1)[N+]([O-])=O,-2.514943789,0.046246767,3,G5,137.138,1.90322,37.8334,10,2,0,3,1,52,1,0,0,1,43.14,58.44932096,3.003400685,240.2879489
A-4822,2-methoxy-4-(prop-2-en-1-yl)phenyl acetate,"InChI=1S/C12H14O3/c1-4-5-10-6-7-11(15-9(2)13)12(8-10)14-3/h4,6-8H,1,5H2,2-3H3",SCCDQYPEOIRVGX-UHFFFAOYSA-N,COc1cc(CC=C)ccc1OC(C)=O,-2.701591149,0,1,G1,206.241,2.349,58.204,15,3,0,3,4,80,1,0,0,1,35.53,89.32006533,2.970500895,369.1300231
A-4823,2-methylbut-2-ene,"InChI=1S/C5H10/c1-4-5(2)3/h4H,1-3H3",BKOOMYPCSUNDGP-UHFFFAOYSA-N,CC=C(C)C,-2.233150945,0.163613274,2,G3,70.135,1.9725,25.105,5,0,0,0,0,30,0,0,0,0,0,33.50941645,3.143197306,38
A-4824,"[(2S,4R)-2-(2,4-dichlorophenyl)-2-(1H-1,2,4-triazol-1-ylmethyl)-1,3-dioxolan-4-yl]methanol","InChI=1S/C13H13Cl2N3O3/c14-9-1-2-11(12(15)3-9)13(6-18-8-16-7-17-18)20-5-10(4-19)21-13/h1-3,7-8,10,19H,4-6H2/t10-,13-/m1/s1",NKUOWQPBYUKRIM-ZWNOBZJWSA-N,OC[C@@H]1CO[C@](Cn2cncn2)(O1)c3ccc(Cl)cc3Cl,-2.905955068,0,1,G1,330.171,1.8456,76.0728,21,6,1,8,4,112,2,1,1,3,69.4,130.7621148,1.994481785,623.1289754
A-4825,butyl 2-methylprop-2-enoate,"InChI=1S/C8H14O2/c1-4-5-6-10-8(9)7(2)3/h2,4-6H2,1,3H3",SOGAXMICEFXMKE-UHFFFAOYSA-N,CCCCOC(=O)C(C)=C,-2.544367455,0.172579229,4,G5,142.198,1.9058,40.681,10,2,0,2,4,58,0,0,0,0,26.3,61.87931013,3.312469478,127.2192809
A-4826,Neohesperidin dihydrochalone,"InChI=1S/C28H36O15/c1-11-21(34)23(36)25(38)27(40-11)43-26-24(37)22(35)19(10-29)42-28(26)41-13-8-16(32)20(17(33)9-13)14(30)5-3-12-4-6-18(39-2)15(31)7-12/h4,6-9,11,19,21-29,31-38H,3,5,10H2,1-2H3/t11-,19+,21-,22+,23+,24-,25+,26+,27-,28+/m0/s1",ITVGXXMINPYUHD-CUVHLRMHSA-N,COc1ccc(CCC(=O)c2c(O)cc(O[C@@H]3O[C@H](CO)[C@@H](O)[C@H](O)[C@H]3O[C@@H]4O[C@@H](C)[C@H](O)[C@@H](O)[C@H]4O)cc2O)cc1O,-3.185103531,0,1,G1,612.581,-1.342,142.6987,43,15,9,15,10,238,2,2,2,4,245.29,245.1932609,1.509104419,1247.709777
A-4828,"3,5,5-trimethylhexan-1-ol","InChI=1S/C9H20O/c1-8(5-6-10)7-9(2,3)4/h8,10H,5-7H2,1-4H3",BODRLKRKPXBDBN-UHFFFAOYSA-N,CC(CCO)CC(C)(C)C,-2.557079916,0,1,G1,144.258,2.4411,44.9388,10,1,1,1,3,62,0,0,0,0,20.23,64.4530217,3.469465595,81.21928095
A-4829,5-chloro-2-nitrophenol,"InChI=1S/C6H4ClNO3/c7-4-1-2-5(8(10)11)6(9)3-4/h1-3,9H",MZDBQSFPAMTTIS-UHFFFAOYSA-N,Oc1cc(Cl)ccc1[N+]([O-])=O,-2.637377139,0,1,G1,173.555,1.9538,39.7712,11,3,1,5,1,58,1,0,0,1,63.37,67.18187882,3.196069662,299.8789117
A-4830,chlorobenzene,InChI=1S/C6H5Cl/c7-6-4-2-1-3-5-6/h1-5H,MVPPADPHJFYWMZ-UHFFFAOYSA-N,Clc1ccccc1,-2.449320235,0.132559197,8,G5,112.559,2.34,31.452,7,0,0,1,0,36,1,0,0,1,0,47.73466935,3.02146531,134.1073697
A-4831,"ethyl 1,3-dioxo-1,3-dihydro-2H-isoindole-2-carboxylate","InChI=1S/C11H9NO4/c1-2-16-11(15)12-9(13)7-5-3-4-6-8(7)10(12)14/h3-6H,2H2,1H3",VRHAQNTWKSVEEC-UHFFFAOYSA-N,CCOC(=O)N1C(=O)c2ccccc2C1=O,-2.738772633,0,1,G1,219.196,1.4391,53.964,16,4,0,5,1,82,1,0,1,2,63.68,91.60822774,2.387792812,445.6278361
A-4835,3-methyl-5-phenylpentan-1-ol,"InChI=1S/C12H18O/c1-11(9-10-13)7-8-12-5-3-2-4-6-12/h2-6,11,13H,7-10H2,1H3",OXYRENDGHPGWKV-UHFFFAOYSA-N,CC(CCO)CCc1ccccc1,-2.660025838,0,1,G1,178.275,2.6377,55.6298,13,1,1,1,5,72,1,0,0,1,20.23,80.41528956,2.266881814,217.8259028
A-4836,"N-decyl-N,N-dimethyldecan-1-aminium chloride","InChI=1S/C22H48N.ClH/c1-5-7-9-11-13-15-17-19-21-23(3,4)22-20-18-16-14-12-10-8-6-2;/h5-22H2,1-4H3;1H/q+1;/p-1",RUPBZQFQVRMKDG-UHFFFAOYSA-M,[Cl-].CCCCCCCCCC[N+](C)(C)CCCCCCCCCC,-2.967747126,0.110924375,2,G3,362.086,4.3482,107.0624,24,0,0,2,18,148,0,0,0,0,0,160.5259338,0,206.0098044
A-4837,1-[bis(4-fluorophenyl)methyl]piperazine,"InChI=1S/C17H18F2N2/c18-15-5-1-13(2-6-15)17(21-11-9-20-10-12-21)14-3-7-16(19)8-4-14/h1-8,17,20H,9-12H2/p+2",TTXIFFYPVGWLSE-UHFFFAOYSA-P,Fc1ccc(cc1)C([NH+]2CC[NH2+]CC2)c3ccc(F)cc3,-2.878601076,0,1,G1,290.357,0.5161,76.9991,21,0,2,4,3,110,2,1,1,3,21.05,122.9481434,1.966360147,529.2440327
A-4839,"(phosphonooxy)phosphonic acid; 1,3,5-triazine-2,4,6-triamine","InChI=1S/C3H6N6.H4O7P2/c4-1-7-2(5)9-3(6)8-1;1-8(2,3)7-9(4,5)6/h(H6,4,5,6,7,8,9);(H2,1,2,3)(H2,4,5,6)",XZTOTRSSGPPNTB-UHFFFAOYSA-N,Nc1nc(N)nc(N)n1.O[P](O)(=O)O[P](O)(O)=O,-2.90897944,0,1,G1,304.096,-2.1934,58.2374,18,9,7,15,2,104,1,0,0,1,241.02,99.50555189,3.21E-07,425.4764007
A-4842,2-[(4-methyl-2-nitrophenyl)amino]ethan-1-ol,"InChI=1S/C9H12N2O3/c1-7-2-3-8(10-4-5-12)9(6-7)11(13)14/h2-3,6,10,12H,4-5H2,1H3",SCZQUWZLEIYDBD-UHFFFAOYSA-N,Cc1ccc(NCCO)c(c1)[N+]([O-])=O,-2.747405168,0,1,G1,196.206,1.30742,53.4089,14,4,2,5,4,76,1,0,0,1,75.4,81.52330112,2.960382588,338.8289935
A-4845,(ethenyloxy)cyclohexane,"InChI=1S/C8H14O/c1-2-9-8-6-4-3-5-7-8/h2,8H,1,3-7H2",VGIYPVFBQRUBDD-UHFFFAOYSA-N,C=COC1CCCCC1,-2.582541974,0,1,G1,126.199,2.4792,38.155,9,1,0,1,2,52,0,1,1,1,9.23,56.71195687,2.145525723,82.56842503
A-4846,"1,4-bis(vinyloxy)butane","InChI=1S/C8H14O2/c1-3-9-7-5-6-8-10-4-2/h3-4H,1-2,5-8H2",MWZJGRDWJVHRDV-UHFFFAOYSA-N,C=COCCCCOC=C,-2.64774351,0.0990707,2,G3,142.198,2.0868,41.532,10,2,0,2,7,58,0,0,0,0,18.46,62.14173022,2.762144285,77.25838097
A-4849,6-amino-4-hydroxynaphthalene-2-sulfonic acid,"InChI=1S/C10H9NO4S/c11-7-2-1-6-3-8(16(13,14)15)5-10(12)9(6)4-7/h1-5,12H,11H2,(H,13,14,15)",HBZVNWNSRNTWPS-UHFFFAOYSA-N,Nc1ccc2cc(cc(O)c2c1)[S](O)(=O)=O,-2.883311239,0,1,G1,239.252,1.3743,59.8398,16,4,3,6,1,84,2,0,0,2,100.62,91.87582811,2.837106255,663.8185193
A-4851,"disodium 4,5-dichloro-2-[(E)-2-[3-methyl-5-oxo-1-(3-sulfonatophenyl)-4,5-dihydro-1H-pyrazol-4-yl]diazen-1-yl]benzene-1-sulfonate","InChI=1S/C16H12Cl2N4O7S2.2Na/c1-8-15(20-19-13-6-11(17)12(18)7-14(13)31(27,28)29)16(23)22(21-8)9-3-2-4-10(5-9)30(24,25)26;;/h2-7,15H,1H3,(H,24,25,26)(H,27,28,29);;/q;2*+1/p-2",NPHMJNPFGARTFL-UHFFFAOYSA-L,[Na+].[Na+].CC1=NN(c2cccc(c2)[S]([O-])(=O)=O)C(=O)C1N=Nc3cc(Cl)c(Cl)cc3[S]([O-])(=O)=O,-3.264264374,0,1,G1,551.297,-3.3154,107.7294,33,10,0,17,5,164,2,0,1,3,171.79,242.8666305,2.72E-06,1368.901949
A-4852,"1,2,3,4-tetrahydronaphthalene; 1,3,5-trimethylbenzene; 1,4-diethylbenzene; 1H-indene; 2,3-dihydro-1H-indene; benzene; naphthalene; propan-2-ylbenzene; toluene","InChI=1S/C10H12.C10H8.C10H14.C9H10.C9H8.2C9H12.C7H8.C6H6/c2*1-2-6-10-8-4-3-7-9(10)5-1;1-3-9-5-7-10(4-2)8-6-9;2*1-2-5-9-7-3-6-8(9)4-1;1-7-4-8(2)6-9(3)5-7;1-8(2)9-6-4-3-5-7-9;1-7-5-3-2-4-6-7;1-2-4-6-5-3-1/h1-2,5-6H,3-4,7-8H2;1-8H;5-8H,3-4H2,1-2H3;1-2,4-5H,3,6-7H2;1-6H,7H2;4-6H,1-3H3;3-8H,1-2H3;2-6H,1H3;1-6H",ZVBGUWYOZNSIJF-UHFFFAOYSA-N,CCc1ccc(CC)cc1.CC(C)c2ccccc2.Cc3ccccc3.Cc4cc(C)cc(C)c4.C5CCc6ccccc6C5.C7Cc8ccccc8C7.C9C=Cc%10ccccc9%10.c%11ccccc%11.c%12ccc%13ccccc%13c%12,-3.539740421,0.258119032,3,G5,1039.589,21.75128,348.682,79,0,0,0,3,406,10,0,3,13,0,478.5731584,1.64E-07,2956.278533
A-4853,"1,3-xylene; cyclopentane; ethylbenzene; pentane; toluene","InChI=1S/2C8H10.C7H8.C5H10.C5H12/c1-7-4-3-5-8(2)6-7;1-2-8-6-4-3-5-7-8;1-7-5-3-2-4-6-7;1-2-4-5-3-1;1-3-5-4-2/h3-6H,1-2H3;3-7H,2H2,1H3;2-6H,1H3;1-5H2;3-5H2,1-2H3",KXUYVAICGNQKKK-UHFFFAOYSA-N,CCCCC.CCc1ccccc1.Cc2ccccc2.Cc3cccc(C)c3.C4CCCC4,-3.172955944,0.258119032,3,G5,446.763,10.69446,151.199,33,0,0,0,3,182,3,1,1,4,0,206.0372167,3.94E-07,727.4516998
A-4854,"2-phenyl-1H-1,3-benzodiazole-5-sulfonic acid","InChI=1S/C13H10N2O3S/c16-19(17,18)10-6-7-11-12(8-10)15-13(14-11)9-4-2-1-3-5-9/h1-8H,(H,14,15)(H,16,17,18)",UVCJGUGAGLDPAA-UHFFFAOYSA-N,O[S](=O)(=O)c1ccc2nc([nH]c2c1)c3ccccc3,-2.961106136,0.219847378,2,G3,274.301,2.4766,71.3443,19,3,2,6,2,96,3,0,0,3,83.05,109.2276063,2.16930407,838.71065
A-4858,benzene; ethenylbenzene; toluene,"InChI=1S/C8H8.C7H8.C6H6/c1-2-8-6-4-3-5-7-8;1-7-5-3-2-4-6-7;1-2-4-6-5-3-1/h2-7H,1H2;2-6H,1H3;1-6H",MHNCXEKWIFKKSF-UHFFFAOYSA-N,Cc1ccccc1.C=Cc2ccccc2.c3ccccc3,-2.961273931,0.258119032,3,G5,274.407,6.01122,94.154,21,0,0,0,1,106,3,0,0,3,0,127.9624771,1.59E-07,541.4969902
A-4860,manganese(2+) ion oxalate,"InChI=1S/C2H2O4.Mn/c3-1(4)2(5)6;/h(H,3,4)(H,5,6);/q;+2/p-2",RGVLTEMOWXGQOS-UHFFFAOYSA-L,[Mn++].[O-]C(=O)C([O-])=O,-2.678081133,0,1,G1,142.956,-3.5163,10.014,7,4,0,5,0,39,0,0,0,0,80.26,49.61132512,0,75.69058447
A-4862,trilithium(1+) ion phosphate,"InChI=1S/3Li.H3O4P/c;;;1-5(2,3)4/h;;;(H3,1,2,3,4)/q3*+1;/p-3",TWQULNDIKKJZPH-UHFFFAOYSA-K,[Li+].[Li+].[Li+].[O-][P]([O-])([O-])=O,-2.590925857,0.027143744,3,G5,115.793,-11.8126,7.6065,8,4,0,8,0,32,0,0,0,0,86.25,83.19931742,-2.67E-08,57.41901189
A-4863,"6-methoxy-1,2,3,4-tetrahydronaphthalene","InChI=1S/C11H14O/c1-12-11-7-6-9-4-2-3-5-10(9)8-11/h6-8H,2-5H2,1H3",SUFDFKRJYKNTFH-UHFFFAOYSA-N,COc1ccc2CCCCc2c1,-2.747738524,0,1,G1,162.232,2.574,49.636,12,1,0,1,1,64,1,0,1,2,9.23,73.36382777,2.356039841,278.3326435
A-4865,"naphthalene-1,5-diamine","InChI=1S/C10H10N2/c11-9-5-1-3-7-8(9)4-2-6-10(7)12/h1-6H,11-12H2",KQSABULTKYLFEV-UHFFFAOYSA-N,Nc1cccc2c(N)cccc12,-2.767853696,0.430218667,3,G5,158.204,2.0042,52.7728,12,2,2,2,0,60,2,0,0,2,52.04,70.79284905,2.943372852,379.8581353
A-4867,4-cyclohexylbutan-2-ol,"InChI=1S/C10H20O/c1-9(11)7-8-10-5-3-2-4-6-10/h9-11H,2-8H2,1H3",ZBLQQRZVKHLRBF-UHFFFAOYSA-N,CC(O)CCC1CCCCC1,-2.767361572,0,1,G1,156.269,2.7277,47.4898,11,1,1,1,3,66,0,1,1,1,20.23,69.81213266,2.046920976,93.04589953
A-4869,barium tartarate,"InChI=1S/C4H6O6.Ba/c5-1(3(7)8)2(6)4(9)10;/h1-2,5-6H,(H,7,8)(H,9,10);/q;+2/p-2",HQYOWPDUMCBSLQ-UHFFFAOYSA-L,[Ba++].OC(C(O)C([O-])=O)C([O-])=O,-3.052330404,0,1,G1,285.398,-5.1728,27.7816,11,6,2,7,3,58,0,0,0,0,120.72,101.9101971,0,138.6612729
A-4870,"1,1'-[methylenebis(oxy)]dibutane","InChI=1S/C9H20O2/c1-3-5-7-10-9-11-8-6-4-2/h3-9H2,1-2H3",QLCJOAMJPCOIDI-UHFFFAOYSA-N,CCCCOCOCCCC,-2.806877,0.025304997,2,G3,160.257,2.5773,46.587,11,2,0,2,8,68,0,0,0,0,18.46,69.8858784,2.690915527,56.58307282
A-4872,cinchonan-9-ol,"InChI=1S/C19H22N2O/c1-2-13-12-21-10-8-14(13)11-18(21)19(22)16-7-9-20-17-6-4-3-5-15(16)17/h2-7,9,13-14,18-19,22H,1,8,10-12H2/t13-,14-,18+,19-/m0/s1",KMPWYEUPVWOPIM-QAMTZSDWSA-N,O[C@H]([C@H]1C[C@@H]2CCN1C[C@@H]2C=C)c3ccnc4ccccc34,-3.088723614,0,1,G1,294.398,3.1646,88.4748,22,3,1,3,3,114,2,3,3,5,36.36,130.8349389,1.669231027,693.3995911
A-4873,hexadecyltrimethylazanium chloride,"InChI=1S/C19H42N.ClH/c1-5-6-7-8-9-10-11-12-13-14-15-16-17-18-19-20(2,3)4;/h5-19H2,1-4H3;1H/q+1;/p-1",WOWHHFRSBJGXCM-UHFFFAOYSA-M,[Cl-].CCCCCCCCCCCCCCCC[N+](C)(C)C,-3.124945522,0,1,G1,320.005,3.1779,93.2114,21,0,0,2,15,130,0,0,0,0,0,141.4311075,0,186.4955999
A-4874,"6-[(3-{[(6-carboxycyclohex-3-en-1-yl)carbonyl]oxy}-2,2-dimethylpropoxy)carbonyl]cyclohex-3-ene-1-carboxylate","InChI=1S/C13H18O4/c1-13(2)7-16-11(14)9-5-3-4-6-10(9)12(15)17-8-13/h3-4,9-10H,5-8H2,1-2H3",ZNLDISJPOBTICN-UHFFFAOYSA-N,CC1(C)COC(=O)C2CC=CCC2C(=O)OC1,-3.004181056,0,1,G1,238.283,1.695,61.053,17,4,0,4,0,94,0,1,2,2,52.6,100.9674257,2.205513642,324.4309632
A-4876,Neomenthol,"InChI=1S/C10H20O/c1-7(2)9-5-4-8(3)6-10(9)11/h7-11H,4-6H2,1-3H3/t8-,9-,10?/m1/s1",NOOLISFMXDJSKH-MGRQHWMJSA-N,CC(C)[C@H]1CC[C@@H](C)CC1O,-2.830260853,0,1,G1,156.269,2.4395,47.3498,11,1,1,1,1,66,0,1,1,1,20.23,69.81213266,2.43715926,120.0411847
A-4878,"methyl 2,6,6-trimethylcyclohex-2-ene-1-carboxylate","InChI=1S/C11H18O2/c1-8-6-5-7-11(2,3)9(8)10(12)13-4/h6,9H,5,7H2,1-4H3",NVAGRWXDIIKUBU-UHFFFAOYSA-N,COC(=O)C1C(=CCCC1(C)C)C,-2.908515996,0.069343443,3,G5,182.263,2.5419,52.278,13,2,0,2,1,74,0,0,1,1,26.3,79.96830532,2.935804256,238.4748339
A-4884,"3,3-dimethylbut-1-yne","InChI=1S/C6H10/c1-5-6(2,3)4/h1H,2-4H3",PPWNCLVNXGCGAF-UHFFFAOYSA-N,CC(C)(C)C#C,-2.613556425,0,1,G1,82.146,1.6657,28.288,6,0,0,0,0,34,0,0,0,0,0,39.56318699,3.552734355,67.01955001
A-4885,"N,N-dimethyl-N-tetradecyltetradecan-1-aminium chloride","InChI=1S/C30H64N.ClH/c1-5-7-9-11-13-15-17-19-21-23-25-27-29-31(3,4)30-28-26-24-22-20-18-16-14-12-10-8-6-2;/h5-30H2,1-4H3;1H/q+1;/p-1",RSHHCURRBLAGFA-UHFFFAOYSA-M,[Cl-].CCCCCCCCCCCCCC[N+](C)(C)CCCCCCCCCCCCCC,-3.37502496,0,1,G1,474.302,7.469,143.9984,32,0,0,2,26,196,0,0,0,0,0,211.4454708,0,298.7932821
A-4889,2-phenoxyethyl 2-methylpropanoate,"InChI=1S/C12H16O3/c1-10(2)12(13)15-9-8-14-11-6-4-3-5-7-11/h3-7,10H,8-9H2,1-2H3",MJTPMXWJHPOWGH-UHFFFAOYSA-N,CC(C)C(=O)OCCOc1ccccc1,-3.026343537,0,1,G1,208.257,2.2646,57.734,15,3,0,3,5,82,1,0,0,1,35.53,90.00966836,2.150620831,292.9953584
A-4890,7-amino-3-methyl-8-oxo-5-thia-1-azabicyclo[4.2.0]oct-2-ene-2-carboxylic acid,"InChI=1S/C8H10N2O3S/c1-3-2-14-7-4(9)6(11)10(7)5(3)8(12)13/h4,7H,2,9H2,1H3,(H,12,13)",NVIAYEIXYQCDAN-UHFFFAOYSA-N,CC1=C(N2C(SC1)C(N)C2=O)C(O)=O,-3.045355413,0,1,G1,214.246,-0.4126,51.4032,14,4,2,6,1,76,0,1,2,2,83.63,84.93269283,2.366773633,352.4955546
A-4894,2-hydroxy-4-methylbenzamide,"InChI=1S/C8H9NO2/c1-5-2-3-6(8(9)11)7(10)4-5/h2-4,10H,1H3,(H2,9,11)",OLEJYVBTZPUQDX-UHFFFAOYSA-N,Cc1ccc(C(N)=O)c(O)c1,-2.917000159,0,1,G1,151.165,0.79952,41.3617,11,2,2,3,1,58,1,0,0,1,63.32,64.4569339,3.196069662,294.1435742
A-4896,"6-chloro-2,3-dihydro-1H-indol-2-one","InChI=1S/C8H6ClNO/c9-6-2-1-5-3-8(11)10-7(5)4-6/h1-2,4H,3H2,(H,10,11)",CENVPIZOTHULGJ-UHFFFAOYSA-N,Clc1ccc2CC(=O)Nc2c1,-2.968988553,0,1,G1,167.595,1.8346,43.7857,11,1,1,3,0,56,1,0,1,2,29.1,69.17010671,2.506684146,321.8681388
A-4899,2-benzyl-2-methylbut-3-enenitrile,"InChI=1S/C12H13N/c1-3-12(2,10-13)9-11-7-5-4-6-8-11/h3-8H,1,9H2,2H3",UKLOORXNVRHFRM-UHFFFAOYSA-N,CC(Cc1ccccc1)(C=C)C#N,-3.000616717,0.017087809,2,G3,171.243,2.94498,54.063,13,1,0,1,3,66,1,0,0,1,23.79,79.32403246,2.808087804,320.7277552
A-4900,"1,4-dibutyl (2Z)-but-2-enedioate","InChI=1S/C12H20O4/c1-3-5-9-15-11(13)7-8-12(14)16-10-6-4-2/h7-8H,3-6,9-10H2,1-2H3/b8-7-",JBSLOWBPDRZSMB-FPLPWBNLSA-N,CCCCOC(=O)\C=C/C(=O)OCCCC,-3.128034162,0.234267081,2,G3,228.288,2.2292,60.874,16,4,0,4,8,92,0,0,0,0,52.6,96.61414591,3.62821593,209.1732595
A-4903,2-amino-3-[(2-amino-2-carboxyethyl)disulfanyl]propanoic acid,"InChI=1S/C6H12N2O4S2/c7-3(5(9)10)1-13-14-2-4(8)6(11)12/h3-4H,1-2,7-8H2,(H,9,10)(H,11,12)/t3-,4-/m0/s1",LEVWYRKDKASIDU-IMJSIDKUSA-N,N[C@@H](CSSC[C@H](N)C(O)=O)C(O)=O,-3.159921987,0.080595134,3,G5,240.306,-0.8084,56.1384,14,6,4,8,7,82,0,0,0,0,126.64,88.80143684,3.468179396,192.0081851
A-4905,methyl 2-ethylhexanoate,"InChI=1S/C9H18O2/c1-4-6-7-8(5-2)9(10)11-3/h8H,4-7H2,1-3H3",KICUISADAVMYCJ-UHFFFAOYSA-N,CCCCC(CC)C(=O)OC,-2.989804004,0.034303125,3,G5,158.241,2.3758,45.322,11,2,0,2,5,66,0,0,0,0,26.3,68.93385527,3.651874391,110.1303606
A-4906,cyclohexene,"InChI=1S/C6H10/c1-2-4-6-5-3-1/h1-2H,3-6H2",HGCIXCUEYOPUTN-UHFFFAOYSA-N,C1CCC=CC1,-2.710466438,0.062133219,2,G3,82.146,2.1166,27.608,6,0,0,0,0,34,0,0,1,1,0,38.86852741,2.255144721,45.05865003
A-4907,"3-(2-hydroxyethyl)-1,2,3,4-tetrahydroquinazoline-2,4-dione","InChI=1S/C10H10N2O3/c13-6-5-12-9(14)7-3-1-2-4-8(7)11-10(12)15/h1-4,13H,5-6H2,(H,11,15)",DSUNWRHRAQZLNC-UHFFFAOYSA-N,OCCN1C(=O)Nc2ccccc2C1=O,-3.112893643,0,1,G1,206.201,-0.3179,55.9145,15,4,2,5,2,78,2,0,0,2,75.09,84.60949728,2.84581972,597.3743697
A-4908,5-heptyloxolan-2-one,"InChI=1S/C11H20O2/c1-2-3-4-5-6-7-10-8-9-11(12)13-10/h10H,2-9H2,1H3/t10-/m0/s1",PHXATPHONSXBIL-JTQLQIEISA-N,CCCCCCC[C@H]1CCC(=O)O1,-3.06681876,0,1,G1,184.279,3.0525,52.49,13,2,0,2,6,76,0,1,1,1,26.3,80.65790835,1.909500479,154.1692686
A-4909,calcium dihydrate hydrogen phosphate,"InChI=1S/Ca.H3O4P/c;1-5(2,3)4/h;(H3,1,2,3,4)/q+2;/p-2",FUFJGUQYACFECW-UHFFFAOYSA-L,[Ca++].O[P]([O-])([O-])=O,-2.949026268,0,1,G1,136.056,-2.5734,15.5793,6,3,1,6,0,32,0,0,0,0,83.42,64.42238884,0,53.6836744
A-4911,pent-1-ene,"InChI=1S/C5H10/c1-3-5-4-2/h3H,1,4-5H2,2H3",YWAKXRMUMFPDSH-UHFFFAOYSA-N,CCCC=C,-2.675673086,0,1,G1,70.135,1.9725,25.105,5,0,0,0,2,30,0,0,0,0,0,33.50941645,2.401715223,21.21928095
A-4913,2-{[(2-ethylhexyl)oxy]methyl}oxirane,"InChI=1S/C11H22O2/c1-3-5-6-10(4-2)7-12-8-11-9-13-11/h10-11H,3-9H2,1-2H3",BBBUAWSVILPJLL-UHFFFAOYSA-N,CCCCC(CC)COCC1CO1,-3.114865161,0,1,G1,186.295,2.6182,53.865,13,2,0,2,8,78,0,1,1,1,21.76,81.60993148,1.93210899,121.2586864
A-4914,boron(3+) ion phosphate,InChI=1S/BO4P/c2-6-3-1(4-6)5-6,RKVCQBPDVHFKCU-UHFFFAOYSA-N,O=[P]12OB(O1)O2,-2.869075736,0,1,G1,105.782,0.1564,16.6155,6,4,0,6,0,32,0,3,3,3,44.76,34.18040008,2.386531362,105.7353375
A-4916,"1-(2,4-dichlorophenyl)-2-(1H-imidazol-1-yl)ethan-1-ol","InChI=1S/C11H10Cl2N2O/c12-8-1-2-9(10(13)5-8)11(16)6-15-4-3-14-7-15/h1-5,7,11,16H,6H2",UKVLTPAGJIYSGN-UHFFFAOYSA-N,OC(Cn1ccnc1)c2ccc(Cl)cc2Cl,-3.264007824,0.928145632,3,G4,257.12,2.9235,63.6488,16,3,1,5,3,84,2,0,0,2,38.05,103.2579276,2.173061662,470.8417311
A-4918,bis[(2-ethylhexyl)oxy]phosphinic acid,"InChI=1S/C16H35O4P/c1-5-9-11-15(7-3)13-19-21(17,18)20-14-16(8-4)12-10-6-2/h15-16H,5-14H2,1-4H3,(H,17,18)",SEGLCEQVOFDUPX-UHFFFAOYSA-N,CCCCC(CC)CO[P](O)(=O)OCC(CC)CCCC,-3.36230202,0.122645165,4,G5,322.426,5.5528,88.3413,21,3,1,5,14,128,0,0,0,0,55.76,130.7843176,4.075382025,259.4505415
A-4919,"disodium 5-{[bis(phenylamino)-1,3,5-triazin-2-yl]amino}-2-[(E)-2-(4-{[bis(phenylamino)-1,3,5-triazin-2-yl]amino}-2-sulfonatophenyl)ethenyl]benzene-1-sulfonate","InChI=1S/C44H36N12O6S2.2Na/c57-63(58,59)37-27-35(49-43-53-39(45-31-13-5-1-6-14-31)51-40(54-43)46-32-15-7-2-8-16-32)25-23-29(37)21-22-30-24-26-36(28-38(30)64(60,61)62)50-44-55-41(47-33-17-9-3-10-18-33)52-42(56-44)48-34-19-11-4-12-20-34;;/h1-28H,(H,57,58,59)(H,60,61,62)(H3,45,46,49,51,53,54)(H3,47,48,50,52,55,56);;/q;2*+1/p-2/b22-21+;;",HOSFCSQXJQXSIQ-ZPZFBZIMSA-L,[Na+].[Na+].[O-][S](=O)(=O)c1cc(Nc2nc(Nc3ccccc3)nc(Nc4ccccc4)n2)ccc1\C=C\c5ccc(Nc6nc(Nc7ccccc7)nc(Nc8ccccc8)n6)cc5[S]([O-])(=O)=O,-3.825587453,0,1,G1,936.948,2.5048,242.8566,66,18,6,22,16,320,8,0,0,8,263.92,423.572476,3.60E-06,2852.449196
A-4920,12-aminododecanoic acid,"InChI=1S/C12H25NO2/c13-11-9-7-5-3-1-2-4-6-8-10-12(14)15/h1-11,13H2,(H,14,15)",PBLZLIFKVPJDCO-UHFFFAOYSA-N,[NH3+]CCCCCCCCCCCC([O-])=O,-3.196398091,0,1,G1,215.337,0.8792,58.9321,15,2,1,3,11,90,0,0,0,0,67.77,93.04926084,2.894680969,148.5575455
A-4921,2-isobutyl-4-methyltetrahydro-2H-pyran,"InChI=1S/C10H20O/c1-8(2)6-10-7-9(3)4-5-11-10/h8-10H,4-7H2,1-3H3",LETLQGKRPMMKKC-UHFFFAOYSA-N,CC(C)CC1CC(C)CCO1,-3.079929481,0,1,G1,156.269,2.8476,47.593,11,1,0,1,2,66,0,1,1,1,9.23,70.13144413,2.225626873,107.4404047
A-4922,"4,4'-disulfanediyldimorpholine",InChI=1S/C8H16N2O2S2/c1-5-11-6-2-9(1)13-14-10-3-7-12-8-4-10/h1-8H2,HLBZWYXLQJQBKU-UHFFFAOYSA-N,C1CN(CCO1)SSN2CCOCC2,-3.259634304,0.123698268,3,G5,236.362,0.8622,59.966,14,6,0,6,3,82,0,2,2,2,24.94,92.94587848,1.598659457,143.420269
A-4923,"5-bromo-1,2,3-trifluorobenzene",InChI=1S/C6H2BrF3/c7-3-1-4(8)6(10)5(9)2-3/h1-2H,HKJCELUUIFFSIN-UHFFFAOYSA-N,Fc1cc(Br)cc(F)c1F,-3.210297936,0,1,G1,210.98,2.8664,34.016,10,0,0,4,0,54,1,0,0,1,0,63.79555693,3.310532875,236.1649959