ID,Name,InChI,InChIKey,SMILES,Solubility,SD,Ocurrences,Group,MolWt,MolLogP,MolMR,HeavyAtomCount,NumHAcceptors,NumHDonors,NumHeteroatoms,NumRotatableBonds,NumValenceElectrons,NumAromaticRings,NumSaturatedRings,NumAliphaticRings,RingCount,TPSA,LabuteASA,BalabanJ,BertzCT
A-1519,calcium dimagnesium(2+) ion tetrahydroxide oxidandiide,"InChI=1S/C19H26O3/c1-18-7-5-12(20)9-11(18)3-4-13-14(18)6-8-19(2)16(22)10-15(21)17(13)19/h9,13-15,17,21H,3-8,10H2,1-2H3/t13-,14+,15?,17-,18+,19-/m1/s1",MYKMKUGZFQKMOZ-HYNIEHHYSA-N,C[C@]12CCC(=O)C=C1CC[C@@H]3[C@@H]2CC[C@@]4(C)[C@H]3C(O)CC4=O,-2.213096942,0.363625997,2,G3,302.414,3.0582,83.1068,22,3,1,3,0,120,0,3,4,4,54.37,131.7125594,1.726554159,577.2293702
A-1520,"4-chloro-2,5-dimethoxyaniline","InChI=1S/C8H10ClNO2/c1-11-7-4-6(10)8(12-2)3-5(7)9/h3-4H,10H2,1-2H3",YGUFQYGSBVXPMC-UHFFFAOYSA-N,COc1cc(Cl)c(OC)cc1N,-3.006121292,0,1,G1,187.626,1.9394,48.9684,12,3,1,4,2,66,1,0,0,1,44.48,76.03153473,3.164874105,258.8815038
A-1521,plumbane,InChI=1S/Pb,WABPQHHGFIMREM-UHFFFAOYSA-N,[Pb],-3.049218023,0,1,G1,207.2,-0.3808,5.754,1,0,0,1,0,4,0,0,0,0,0,27.65102933,0,0
A-1523,3-methylbutyl butanoate,"InChI=1S/C9H18O2/c1-4-5-9(10)11-7-6-8(2)3/h8H,4-7H2,1-3H3",PQLMXFQTAMDXIZ-UHFFFAOYSA-N,CCCC(=O)OCCC(C)C,-2.932852123,0,1,G1,158.241,2.3758,45.322,11,2,0,2,5,66,0,0,0,0,26.3,68.93385527,3.172764383,108.1303606
A-1524,3-(cyclohexylamino)propane-1-sulfonic acid,"InChI=1S/C9H19NO3S/c11-14(12,13)8-4-7-10-9-5-2-1-3-6-9/h9-10H,1-8H2,(H,11,12,13)",PJWWRFATQTVXHA-UHFFFAOYSA-N,O[S](=O)(=O)CCCNC1CCCCC1,-3.080206763,0,1,G1,221.322,1.1866,55.9083,14,3,2,5,5,84,0,1,1,1,66.4,85.83145498,2.029093273,244.7826815
A-1528,(2E)-2-(phenylmethylidene)heptanal,"InChI=1S/C14H18O/c1-2-3-5-10-14(12-15)11-13-8-6-4-7-9-13/h4,6-9,11-12H,2-3,5,10H2,1H3/b14-11-",HMKKIXGYKWDQSV-KAMYIIQDSA-N,CCCCC/C(C=O)=C/c1ccccc1,-3.046658418,0,1,G1,202.297,3.8492,64.625,15,1,0,1,6,80,1,0,0,1,17.07,91.8228591,2.576209017,311.3704022
A-1532,1-bromo-3-chloropropane,InChI=1S/C3H6BrCl/c4-2-1-3-5/h1-3H2,MFESCIUQSIBMSM-UHFFFAOYSA-N,ClCCCBr,-1.940151412,0.451026763,3,G5,157.438,2.0102,29.131,5,0,0,2,2,32,0,0,0,0,0,45.63994909,2.190609687,14.36452798
A-1533,"2,2,2-trichloroethane-1,1-diol","InChI=1S/C2H3Cl3O2/c3-2(4,5)1(6)7/h1,6-7H",RNFNDJAIBTYOQL-UHFFFAOYSA-N,OC(O)C(Cl)(Cl)Cl,1.037167298,0.47518564,6,G5,165.403,0.6673,28.5156,7,2,2,5,0,44,0,0,0,0,40.46,55.60245933,3.541196965,56.44547197
A-1534,"disodium (5E)-5-[2-(2-methoxy-5-methyl-4-sulfonatophenyl)hydrazin-1-ylidene]-6-oxo-5,6-dihydronaphthalene-2-sulfonate","InChI=1S/C18H16N2O8S2.2Na/c1-10-7-14(16(28-2)9-17(10)30(25,26)27)19-20-18-13-5-4-12(29(22,23)24)8-11(13)3-6-15(18)21;;/h3-9,19H,1-2H3,(H,22,23,24)(H,25,26,27);;/q;2*+1/p-2/b20-18+;;",POXPUHKJGLHZEM-VIPPSAFOSA-L,[Na+].[Na+].COc1cc(c(C)cc1N\N=C2\C(=O)C=Cc3cc(ccc23)[S]([O-])(=O)=O)[S]([O-])(=O)=O,-0.440585514,0.043575088,2,G3,496.43,-4.76808,104.3001,32,10,1,14,5,158,2,0,1,3,165.09,228.7571751,2.56E-06,1336.988631
A-1538,5-hydroxyisophthalic acid,"InChI=1S/C8H6O5/c9-6-2-4(7(10)11)1-5(3-6)8(12)13/h1-3,9H,(H,10,11)(H,12,13)",QNVNLUSHGRBCLO-UHFFFAOYSA-N,OC(=O)c1cc(O)cc(c1)C(O)=O,-2.005111367,0.238444316,2,G3,182.131,0.7886,42.0254,13,3,3,5,2,68,1,0,0,1,94.83,72.8670328,3.263407613,336.5471776
A-1539,"disodium 2,2'-ethene-1,2-diylbis{5-[(4-anilino-6-morpholin-4-yl-1,3,5-triazin-2-yl)amino]benzenesulfonate}","InChI=1S/C40H40N12O8S2.2Na/c53-61(54,55)33-25-31(43-37-45-35(41-29-7-3-1-4-8-29)47-39(49-37)51-17-21-59-22-18-51)15-13-27(33)11-12-28-14-16-32(26-34(28)62(56,57)58)44-38-46-36(42-30-9-5-2-6-10-30)48-40(50-38)52-19-23-60-24-20-52;;/h1-16,25-26H,17-24H2,(H,53,54,55)(H,56,57,58)(H2,41,43,45,47,49)(H2,42,44,46,48,50);;/q;2*+1/p-2/b12-11+;;",VUJGKADZTYCLIL-YHPRVSEPSA-L,[Na+].[Na+].[O-][S](=O)(=O)c1cc(Nc2nc(Nc3ccccc3)nc(n2)N4CCOCC4)ccc1/C=C/c5ccc(Nc6nc(Nc7ccccc7)nc(n6)N8CCOCC8)cc5[S]([O-])(=O)=O,-2.710838239,0.011740548,2,G3,924.934,-1.3092,229.4712,64,20,4,24,14,320,6,2,2,8,264.8,413.0131956,3.40E-06,2616.473805
A-1540,"1,6-bis(propan-2-yl) hexanedioate","InChI=1S/C12H22O4/c1-9(2)15-11(13)7-5-6-8-12(14)16-10(3)4/h9-10H,5-8H2,1-4H3",ZDQWESQEGGJUCH-UHFFFAOYSA-N,CC(C)OC(=O)CCCCC(=O)OC(C)C,-3.107028976,0,1,G1,230.304,2.45,60.924,16,4,0,4,7,94,0,0,0,0,52.6,97.30374895,3.45767128,197.05865
A-1541,"2,2,5-trimethyl-5-pentylcyclopentanone","InChI=1S/C13H24O/c1-5-6-7-8-13(4)10-9-12(2,3)11(13)14/h5-10H2,1-4H3",PUKWIVZFEZFVAT-UHFFFAOYSA-N,CCCCCC1(C)CCC(C)(C)C1=O,-4.016533711,0,1,G1,196.334,3.9621,60.271,14,1,0,1,4,82,0,1,1,1,17.07,88.27424735,2.545870557,217.2754526
A-1542,cyclododecanol,"InChI=1S/C12H24O/c13-12-10-8-6-4-2-1-3-5-7-9-11-12/h12-13H,1-11H2",SFVWPXMPRCIVOK-UHFFFAOYSA-N,OC1CCCCCCCCCCC1,-3.989117726,0.162799094,2,G3,184.323,3.652,56.7938,13,1,1,1,0,78,0,1,1,1,20.23,82.54201688,2.107958164,99.69210414
A-1543,"3,3,4,4,5,5,6,6,7,7,8,8,8-tridecafluorooctan-1-ol","InChI=1S/C8H5F13O/c9-3(10,1-2-22)4(11,12)5(13,14)6(15,16)7(17,18)8(19,20)21/h22H,1-2H2",GRJRKPMIRMSBNK-UHFFFAOYSA-N,OCCC(F)(F)C(F)(F)C(F)(F)C(F)(F)C(F)(F)C(F)(F)F,-4.287064023,0,1,G1,364.101,4.1076,42.4928,22,1,1,14,6,134,0,0,0,0,20.23,112.2400398,6.112592581,395.3344953
A-1544,"bis(2,2,6,6-tetramethylpiperidin-4-yl) decanedioate","InChI=1S/C28H52N2O4/c1-25(2)17-29-18-26(3,4)23(25)33-21(31)15-13-11-9-10-12-14-16-22(32)34-24-27(5,6)19-30-20-28(24,7)8/h23-24,29-30H,9-20H2,1-8H3",RWMYPXKVMUFMKS-UHFFFAOYSA-N,CC1(C)CNCC(C)(C)C1OC(=O)CCCCCCCCC(=O)OC2C(C)(C)CNCC2(C)C,-4.40774699,0,1,G1,480.734,5.242,137.5594,34,6,2,6,11,198,0,2,2,2,76.66,208.2308848,1.57066571,593.8935942
A-1545,"1,1,5-trimethylhept-6-en-1-yl acetate","InChI=1S/C12H22O2/c1-6-10(2)8-7-9-12(4,5)14-11(3)13/h6,10H,1,7-9H2,2-5H3",BEARMGATPGLSKG-UHFFFAOYSA-N,CC(CCCC(C)(C)OC(C)=O)C=C,-4.030164126,0,1,G1,198.306,3.3205,59.057,14,2,0,2,6,82,0,0,0,0,26.3,87.33907858,3.752160171,194.4984101
A-1547,"1,2-bis(2-methylpropyl) cyclohexane-1,2-dicarboxylate","InChI=1S/C16H28O4/c1-11(2)9-19-15(17)13-7-5-6-8-14(13)16(18)20-10-12(3)4/h11-14H,5-10H2,1-4H3",QUKHPBOCBWDYMW-UHFFFAOYSA-N,CC(C)COC(=O)C1CCCCC1C(=O)OCC(C)C,-4.19123514,0,1,G1,284.396,3.1912,77.042,20,4,0,4,6,116,0,1,1,1,52.6,121.7576862,2.563737388,290.4385619
A-1549,"3,3,5-trimethylcyclohexyl prop-2-enoate","InChI=1S/C12H20O2/c1-5-11(13)14-10-6-9(2)7-12(3,4)8-10/h5,9-10H,1,6-8H2,2-4H3",ZMTBGVBNTHTBEC-UHFFFAOYSA-N,CC1CC(CC(C)(C)C1)OC(=O)C=C,-4.030447085,0,1,G1,196.29,2.9304,56.873,14,2,0,2,2,80,0,1,1,1,26.3,86.33324743,2.535133451,230.4762284
A-1550,cyclohexyl(phenyl)methanone,"InChI=1S/C13H16O/c14-13(11-7-3-1-4-8-11)12-9-5-2-6-10-12/h1,3-4,7-8,12H,2,5-6,9-10H2",BMFYCFSWWDXEPB-UHFFFAOYSA-N,O=C(C1CCCCC1)c2ccccc2,-4.014709735,0,1,G1,188.27,3.4496,57.3475,14,1,0,1,2,74,1,1,1,2,17.07,85.14168887,2.07447402,296.2714185
A-1553,"tris(1,3-dichloropropan-2-yl) phosphate","InChI=1S/C9H15Cl6O4P/c10-1-7(2-11)17-20(16,18-8(3-12)4-13)19-9(5-14)6-15/h7-9H,1-6H2",ASLWPAWFJZFCKF-UHFFFAOYSA-N,ClCC(CCl)O[P](=O)(OC(CCl)CCl)OC(CCl)CCl,-4.376704974,0.206290267,2,G3,430.907,4.6829,86.5455,20,4,0,11,12,122,0,0,0,0,44.76,148.3686317,4.947205148,242.81735
A-1554,"1,2,3-trichlorobenzene",InChI=1S/C6H3Cl3/c7-4-2-1-3-5(8)6(4)9/h1-3H,RELMFMZEBKVZJC-UHFFFAOYSA-N,Clc1cccc(Cl)c1Cl,-4.003482074,0.116476053,5,G5,181.449,3.6468,41.472,9,0,0,3,0,48,1,0,0,1,0,68.3412018,3.247834734,199.2929995
A-1555,calcium bis(3-nitro-4-{[2-oxo-1-(phenylcarbamoyl)propyl]diazenyl}benzenesulfonate),"InChI=1S/2C16H14N4O7S.Ca/c2*1-10(21)15(16(22)17-11-5-3-2-4-6-11)19-18-13-8-7-12(28(25,26)27)9-14(13)20(23)24;/h2*2-9,15H,1H3,(H,17,22)(H,25,26,27);/q;;+2/p-2",VWDVUHHOWAILLC-UHFFFAOYSA-L,[Ca++].CC(=O)C(N=Nc1ccc(cc1[N+]([O-])=O)[S]([O-])(=O)=O)C(=O)Nc2ccccc2.CC(=O)C(N=Nc3ccc(cc3[N+]([O-])=O)[S]([O-])(=O)=O)C(=O)Nc4ccccc4,-4.674562122,0,1,G1,850.814,3.977,195.9866,57,18,2,25,14,292,4,0,0,4,342.46,351.8464137,3.87E-07,2282.097609
A-1556,"methyl 2,4-dihydroxy-3,6-dimethylbenzoate","InChI=1S/C10H12O4/c1-5-4-7(11)6(2)9(12)8(5)10(13)14-3/h4,11-12H,1-3H3",UUQHKWMIDYRWHH-UHFFFAOYSA-N,COC(=O)c1c(C)cc(O)c(C)c1O,-4.037430925,0,1,G1,196.202,1.50124,50.5851,14,4,2,4,1,76,1,0,0,1,66.76,81.75470641,3.437213166,382.1986551
A-1558,sodium iodide,InChI=1S/HI.Na/h1H;/q;+1/p-1,FVAUCKIRQBBSSJ-UHFFFAOYSA-M,[Na+].[I-],1.07779604,0,1,G1,149.894,-5.992,0,2,0,0,2,0,8,0,0,0,0,0,52.9256698,0,2
A-1559,4-(4-amino-3-chlorophenyl)-2-chloroaniline dihydrochloride,"InChI=1S/C12H10Cl2N2.2ClH/c13-9-5-7(1-3-11(9)15)8-2-4-12(16)10(14)6-8;;/h1-6H,15-16H2;2*1H",BXAONUZFBUNTQR-UHFFFAOYSA-N,[H+].[H+].[Cl-].[Cl-].Nc1ccc(cc1Cl)c2ccc(N)c(Cl)c2,-3.26286953,0,1,G1,326.054,-1.9422,72.9468,18,2,2,6,1,98,2,0,0,2,52.04,131.0505944,-7.22E-07,503.475686
A-1562,4-methyl-1-(propan-2-yl)cyclohex-3-en-1-ol,"InChI=1S/C10H18O/c1-8(2)10(11)6-4-9(3)5-7-10/h4,8,11H,5-7H2,1-3H3",WRYLYDPHFGVWKC-UHFFFAOYSA-N,CC(C)C1(O)CCC(=CC1)C,-1.94099707,0.32998735,2,G3,154.253,2.5037,47.3958,11,1,1,1,1,64,0,0,1,1,20.23,69.12252962,2.637067423,169.7115907
A-1563,"1-(chloromethyl)-4-fluoro-1,4-diazabicyclo[2.2.2]octane-1,4-diium; bis(tetrafluoroboranuide)","InChI=1S/C7H14ClFN2.2BF4/c8-7-10-1-4-11(9,5-2-10)6-3-10;2*2-1(3,4)5/h1-7H2;;/q+2;2*-1",TXRPHPUGYLSHCX-UHFFFAOYSA-N,F[B-](F)(F)F.F[B-](F)(F)F.F[N+]12CC[N+](CCl)(CC1)CC2,-0.303811902,0,1,G1,354.262,3.328,61.9228,21,0,0,14,1,128,0,3,3,3,0,120.3073013,3.40E-07,275.6691526
A-1564,"1,4-dimethoxy-2-nitrobenzene","InChI=1S/C8H9NO4/c1-12-6-3-4-8(13-2)7(5-6)9(10)11/h3-5H,1-2H3",UPTOWXNJLZJTGD-UHFFFAOYSA-N,COc1ccc(OC)c(c1)[N+]([O-])=O,-3.01732508,0.04968746,2,G3,183.163,1.612,46.2004,13,4,0,5,3,70,1,0,0,1,61.6,75.04135353,3.175529229,323.9201073
A-1565,3-iodoprop-2-yn-1-yl N-butylcarbamate,"InChI=1S/C8H12INO2/c1-2-3-6-10-8(11)12-7-4-5-9/h2-3,6-7H2,1H3,(H,10,11)",WYVVKGNFXHOCQV-UHFFFAOYSA-N,CCCCNC(=O)OCC#CI,-3.203337363,0.014253799,3,G5,281.093,1.9086,56.0547,12,2,1,4,4,68,0,0,0,0,38.33,86.37983885,3.254720762,183.2322193
A-1569,"5-nitro-2,3-dihydro-1H-1,2,4-triazol-3-one","InChI=1S/C2H2N4O3/c7-2-3-1(4-5-2)6(8)9/h(H2,3,4,5,7)",QJTIRVUEVSKJTK-UHFFFAOYSA-N,[O-][N+](=O)C1=NC(=O)NN1,-0.87862532,0,1,G1,130.063,-0.9938,25.8628,9,4,2,7,1,48,1,0,0,1,104.68,47.86281089,3.122372098,271.340157
A-1570,"5-amino-6-methyl-2,3-dihydro-1H-1,3-benzodiazol-2-one","InChI=1S/C8H9N3O/c1-4-2-6-7(3-5(4)9)11-8(12)10-6/h2-3H,9H2,1H3,(H2,10,11,12)",ZCXIPVIGYBHUTQ-UHFFFAOYSA-N,Cc1cc2NC(=O)Nc2cc1N,-1.977138482,0.127916623,2,G3,163.18,0.74682,48.0688,12,2,3,4,0,62,2,0,0,2,74.67,68.40823096,2.915474886,438.4988968
A-1576,2-(tert-butylperoxy)-2-methylpropane,"InChI=1S/C8H18O2/c1-7(2,3)9-10-8(4,5)6/h1-6H3",LSXWFXONGKSEMY-UHFFFAOYSA-N,CC(C)(C)OOC(C)(C)C,-2.93204037,0.116479815,2,G3,146.23,2.5316,41.676,10,2,0,2,1,62,0,0,0,0,18.46,63.4502316,3.56300175,80.80566876
A-1577,ethyl 3-phenylacrylate,"InChI=1S/C11H12O2/c1-2-13-11(12)9-8-10-6-4-3-5-7-10/h3-9H,2H2,1H3/b9-8+",KBEBGUQPQBELIU-CMDGGOBGSA-N,CCOC(=O)\C=C\c1ccccc1,-3.013046764,0.008723382,2,G3,176.215,2.2629,52.109,13,2,0,2,3,68,1,0,0,1,26.3,77.84157799,2.538214333,288.2184055
A-1578,"sodium 2-[(4-hydroxy-9,10-dioxo-9,10-dihydroanthracen-1-yl)amino]-5-methylbenzene-1-sulfonate","InChI=1S/C21H15NO6S.Na/c1-11-6-7-14(17(10-11)29(26,27)28)22-15-8-9-16(23)19-18(15)20(24)12-4-2-3-5-13(12)21(19)25;/h2-10,22-23H,1H3,(H,26,27,28);/q;+1/p-1",GTKIEPUIFBBXJQ-UHFFFAOYSA-M,[Na+].Cc1ccc(Nc2ccc(O)c3C(=O)c4ccccc4C(=O)c23)c(c1)[S]([O-])(=O)=O,-2.402393281,0.383756067,2,G3,431.401,0.12772,103.8387,30,7,2,9,3,146,3,0,1,4,123.6,194.3437625,2.56E-06,1317.067043
A-1579,"2,3-dihydro-1,2-benzothiazol-3-one","InChI=1S/C7H5NOS/c9-7-5-3-1-2-4-6(5)10-8-7/h1-4H,(H,8,9)",DMSMPAJRVJJAGA-UHFFFAOYSA-N,O=C1NSc2ccccc12,-1.947289546,0.235013061,12,G5,151.19,1.5896,42.4457,10,2,1,3,0,50,2,0,0,2,32.86,61.27569099,3.070614738,400.8983534
A-1585,2-methyl-1-[4-(methylsulfanyl)phenyl]-2-(morpholin-4-yl)propan-1-one,"InChI=1S/C15H21NO2S/c1-15(2,16-8-10-18-11-9-16)14(17)12-4-6-13(19-3)7-5-12/h4-7H,8-11H2,1-3H3",LWRBVKNFOYUCNP-UHFFFAOYSA-N,CSc1ccc(cc1)C(=O)C(C)(C)N2CCOCC2,-4.193381143,0,1,G1,279.405,2.702,79.0245,19,4,0,4,4,104,1,1,1,2,29.54,118.868062,2.154650095,435.9637257
A-1587,Isolongifolanone,"InChI=1S/C15H24O/c1-13(2)7-6-11(16)12-14(3,4)10-5-8-15(12,13)9-10/h10,12H,5-9H2,1-4H3",VCOCESNMLNDPLX-UHFFFAOYSA-N,CC1(C)C2CCC3(C2)C1C(=O)CCC3(C)C,-4.097612213,0.078803927,2,G3,220.356,3.818,65.067,16,1,0,1,0,90,0,3,3,3,17.07,98.99246927,2.137557429,352.4464523
A-1588,"1,1-dimethylpropyl 2-(ethylperoxy)hexanoate","InChI=1S/C13H26O3/c1-6-9-10-11(7-2)12(14)15-16-13(4,5)8-3/h11H,6-10H2,1-5H3",IFXDUNDBQDXPQZ-UHFFFAOYSA-N,CCCCC(CC)C(=O)OOC(C)(C)CC,-4.116871778,0,1,G1,230.348,3.8662,64.853,16,3,0,3,8,96,0,0,0,0,35.53,99.43646428,4.014652518,199.3543874
A-1591,"1,1-dimethoxycyclododecane","InChI=1S/C14H28O2/c1-15-14(16-2)12-10-8-6-4-3-5-7-9-11-13-14/h3-13H2,1-2H3",XXNCXSHVDVCRKB-UHFFFAOYSA-N,COC1(CCCCCCCCCCC1)OC,-4.125654352,0,1,G1,228.376,4.2802,67.536,16,2,0,2,2,96,0,1,1,1,18.46,100.7047578,2.40839735,150.1182766
A-1599,"5-[(5-sulfanylidene-4,5-dihydro-1,3,4-thiadiazol-2-yl)disulfanyl]-2,3-dihydro-1,3,4-thiadiazole-2-thione","InChI=1S/C4H2N4S6/c9-1-5-7-3(11-1)13-14-4-8-6-2(10)12-4/h(H,5,9)(H,6,10)",DJCISYVIXPWVHY-UHFFFAOYSA-N,S=C1NN=C(SSC2=NNC(=S)S2)S1,-3.252213315,0,1,G1,298.49,3.51418,66.3114,14,8,2,10,3,74,2,0,0,2,57.36,104.9484656,2.00900367,469.6690511
A-1600,nonan-2-one,"InChI=1S/C9H18O/c1-3-4-5-6-7-8-9(2)10/h3-8H2,1-2H3",VKCYHJWLYTUGCC-UHFFFAOYSA-N,CCCCCCCC(C)=O,-2.930311379,0.173328719,2,G3,142.242,2.9359,44.057,10,1,0,1,6,60,0,0,0,0,17.07,63.82031004,2.838589122,86.72905595
A-1601,"1-methyl-2,4-dinitrobenzene; 2-methyl-1,3-dinitrobenzene","InChI=1S/C7H6N2O4/c1-5-2-3-6(8(10)11)4-7(5)9(12)13/h2-4H,1H3",RMBFBMJGBANMMK-UHFFFAOYSA-N,Cc1ccc(cc1[N+]([O-])=O)[N+]([O-])=O,-3.040285322,0.111434164,3,G5,182.135,1.81142,44.4878,13,4,0,6,2,68,1,0,0,1,86.28,73.10229668,3.267052212,374.7553336
A-1602,"Phosphorodithioic acid, mixed O,O-bis(iso-Bu and pentyl) esters, zinc salts","InChI=1S/2C8H19O2PS2.Zn/c2*1-7(2)5-9-11(12,13)10-6-8(3)4;/h2*7-8H,5-6H2,1-4H3,(H,12,13);/q;;+2/p-2",CFGBPGNQMWYJPH-UHFFFAOYSA-L,[Zn++].CC(C)CO[P]([S-])(=S)OCC(C)C.CC(C)CO[P]([S-])(=S)OCC(C)C,-2.519248335,0,1,G1,548.066,6.2035,126.46,27,8,0,11,12,160,0,0,0,0,36.92,200.9505411,-4.11E-07,380.1362101
A-1606,4-[(3-hydroxypropyl)amino]-3-nitrophenol,"InChI=1S/C9H12N2O4/c12-5-1-4-10-8-3-2-7(13)6-9(8)11(14)15/h2-3,6,10,12-13H,1,4-5H2",VTXBLQLZQLHDIL-UHFFFAOYSA-N,OCCCNc1ccc(O)cc1[N+]([O-])=O,-2.11058971,0.025164139,2,G3,212.205,1.0947,54.9537,15,5,3,6,5,82,1,0,0,1,95.63,86.31753487,2.812006596,353.9656228
A-1608,ethyl 2-methyl-4-oxo-6-pentylcyclohex-2-ene-1-carboxylate,"InChI=1S/C15H24O3/c1-4-6-7-8-12-10-13(16)9-11(3)14(12)15(17)18-5-2/h9,12,14H,4-8,10H2,1-3H3",ZJLHQWGPVWXKME-UHFFFAOYSA-N,CCCCCC1CC(=O)C=C(C)C1C(=O)OCC,-3.187166345,0,1,G1,252.354,3.2813,71.136,18,3,0,3,6,102,0,0,1,1,43.37,109.5895959,2.735592005,330.6304155
A-1611,"8-[(4-amino-3-nitrophenyl)diazenyl]-7-hydroxy-N,N,N-trimethylnaphthalen-2-aminium chloride","InChI=1S/C19H19N5O3.ClH/c1-24(2,3)14-7-4-12-5-9-18(25)19(15(12)11-14)22-21-13-6-8-16(20)17(10-13)23(26)27;/h4-11H,1-3H3,(H2-,20,21,22,25);1H",CMPPYVDBIJWGCB-UHFFFAOYSA-N,[Cl-].C[N+](C)(C)c1ccc2C=CC(=O)C(=N/Nc3ccc(N)c(c3)[N+]([O-])=O)\c2c1,-1.39724242,0,1,G1,401.854,-0.2102,107.7175,28,6,2,9,4,146,2,0,1,3,110.62,168.0402656,2.80E-06,1009.11407
A-1612,"1,2-xylene","InChI=1S/C8H10/c1-7-5-3-4-6-8(7)2/h3-6H,1-2H3",CTQNGGLPUBDAKN-UHFFFAOYSA-N,Cc1ccccc1C,-2.81916776,0.032173366,5,G5,106.168,2.30344,35.916,8,0,0,0,0,42,1,0,0,1,0,50.16128735,3.134861511,156.1481139
A-1614,"1,4-xylene","InChI=1S/C8H10/c1-7-3-5-8(2)6-4-7/h3-6H,1-2H3",URLKBWYHVLBVBO-UHFFFAOYSA-N,Cc1ccc(C)cc1,-2.81916776,0.032173366,5,G5,106.168,2.30344,35.916,8,0,0,0,0,42,1,0,0,1,0,50.16128735,3.032455532,138.8981139
A-1617,"2,3,4,5,6,7-hexahydro-1H-isoindole-1,3-dione","InChI=1S/C8H9NO2/c10-7-5-3-1-2-4-6(5)8(11)9-7/h1-4H2,(H,9,10,11)",AFJWMGOTLUUGHF-UHFFFAOYSA-N,O=C1NC(=O)C2=C1CCCC2,-1.974517726,0,1,G1,151.165,0.5134,38.6437,11,2,1,3,0,58,0,0,2,2,46.17,64.46548687,2.399261941,239.2656234
A-1619,2-phenylethyl 2-methylpropanoate,"InChI=1S/C12H16O2/c1-10(2)12(13)14-9-8-11-6-4-3-5-7-11/h3-7,10H,8-9H2,1-2H3",JDQVBGQWADMTAM-UHFFFAOYSA-N,CC(C)C(=O)OCCc1ccccc1,-3.079764438,0.039108444,3,G5,192.258,2.4283,55.943,14,2,0,2,4,76,1,0,0,1,26.3,84.89612314,2.257507229,277.6330203
A-1620,"4-(2,6,6-trimethylcyclohex-1-en-1-yl)but-3-en-2-one","InChI=1S/C13H20O/c1-10-6-5-9-13(3,4)12(10)8-7-11(2)14/h7-8H,5-6,9H2,1-4H3/b8-7+",PSQYTAPXSHCGMF-BQYQJAHWSA-N,CC(=O)/C=C/C1=C(C)CCCC1(C)C,-3.079863818,0.083044578,3,G5,192.302,3.6582,60.153,14,1,0,1,2,78,0,0,1,1,17.07,86.89504128,2.961277471,292.3574238
A-1623,"N,N-dimethyldecan-1-amine","InChI=1S/C12H27N/c1-4-5-6-7-8-9-10-11-12-13(2)3/h4-12H2,1-3H3",YWWNNLPSZSEZNZ-UHFFFAOYSA-N,CCCCCCCCCCN(C)C,-4.045287835,0.195033693,2,G3,185.355,3.6887,61.164,13,1,0,1,9,80,0,0,0,0,3.24,84.51344796,2.835406156,89.12526634
A-1624,ethyl 3-[(diisopropoxyphosphorothioyl)sulfanyl]propanoate,"InChI=1S/C11H23O4PS2/c1-6-13-11(12)7-8-18-16(17,14-9(2)3)15-10(4)5/h9-10H,6-8H2,1-5H3",PMWHATAFABINDH-UHFFFAOYSA-N,CCOC(=O)CCS[P](=S)(OC(C)C)OC(C)C,-4.274778498,0,1,G1,314.409,3.7473,80.435,18,6,0,7,9,108,0,0,0,0,44.76,119.0557825,4.247063581,280.7677999
A-1626,4-Tricyclodecylidene butanal,"InChI=1S/C14H20O/c15-7-2-1-4-10-8-11-9-14(10)13-6-3-5-12(11)13/h4,7,11-14H,1-3,5-6,8-9H2/b10-4+",WFEISWUNAJPLRX-ONNFQVAWSA-N,O=CCC\C=C1/CC2CC1C3CCCC23,-4.090187913,0,1,G1,204.313,3.348,60.426,15,1,0,1,3,82,0,3,3,3,17.07,91.93792412,1.697435422,291.7138258
A-1627,2-methyloctane-2-thiol,"InChI=1S/C9H20S/c1-4-5-6-7-8-9(2,3)10/h10H,4-8H2,1-3H3",MPBLPZLNKKGCGP-UHFFFAOYSA-N,CCCCCCC(C)(C)S,-3.990160109,0.194517551,3,G5,160.326,3.6652,51.824,10,1,1,1,5,62,0,0,0,0,0,70.81385461,3.043758409,71.28767654
A-1628,"3,7-dimethyloct-6-en-1-yl formate","InChI=1S/C11H20O2/c1-10(2)5-4-6-11(3)7-8-13-9-12/h5,9,11H,4,6-8H2,1-3H3",DZNVIZQPWLDQHI-UHFFFAOYSA-N,CC(CCOC=O)CCC=C(C)C,-4.055960832,0,1,G1,184.279,2.932,54.462,13,2,0,2,7,76,0,0,0,0,26.3,80.97413647,3.343148239,157.473214
A-1629,O-(4-bromo-2-chlorophenyl) O-ethyl S-propyl thiophosphate,"InChI=1S/C11H15BrClO3PS/c1-3-7-18-17(14,15-4-2)16-11-6-5-9(12)8-10(11)13/h5-6,8H,3-4,7H2,1-2H3",QYMMJNLHFKGANY-UHFFFAOYSA-N,CCCS[P](=O)(OCC)Oc1ccc(Br)cc1Cl,-4.365622838,0.120166078,2,G3,373.636,5.7691,81.7615,18,4,0,7,7,102,1,0,0,1,35.53,124.988653,2.851003263,444.2965436
A-1630,zinc bis(dinonylnaphthalenesulphonate),"InChI=1S/2C28H44O3S.Zn/c2*1-3-5-7-9-11-13-15-19-24-23-25-20-17-18-22-27(25)28(32(29,30)31)26(24)21-16-14-12-10-8-6-4-2;/h2*17-18,20,22-23H,3-16,19,21H2,1-2H3,(H,29,30,31);/q;;+2/p-2",COGHWIKGZJHSAG-UHFFFAOYSA-L,[Zn++].CCCCCCCCCc1cc2ccccc2c(c1CCCCCCCCC)[S]([O-])(=O)=O.CCCCCCCCCc3cc4ccccc4c(c3CCCCCCCCC)[S]([O-])(=O)=O,-4.788424219,0.034887221,3,G5,984.822,16.6577,270.6104,65,6,0,9,34,360,4,0,0,4,114.4,410.1361737,4.40E-07,1963.261094
A-1634,2-methyldecanal,"InChI=1S/C11H22O/c1-3-4-5-6-7-8-9-11(2)10-12/h10-11H,3-9H2,1-2H3",LBICMZLDYMBIGA-UHFFFAOYSA-N,CCCCCCCCC(C)C=O,-4.027084465,0.247425011,2,G3,170.296,3.572,53.221,12,1,0,1,8,72,0,0,0,0,17.07,76.55019427,2.947948425,99.17723488
A-1635,"dimethyl 2,5-dioxocyclohexane-1,4-dicarboxylate","InChI=1S/C10H12O6/c1-15-9(13)5-3-8(12)6(4-7(5)11)10(14)16-2/h5-6H,3-4H2,1-2H3",MHKKFFHWMKEBDW-UHFFFAOYSA-N,COC(=O)C1CC(=O)C(CC1=O)C(=O)OC,-4.154195657,0,1,G1,228.2,-0.5032,50.26,16,6,0,6,2,88,0,1,1,1,86.74,91.89107776,2.78382292,311.2184173
A-1636,2-(chloromethyl)oxirane; 4-[2-(4-hydroxyphenyl)propan-2-yl]phenol; 2-methyloxirane,"InChI=1S/C15H16O2.C3H5ClO.C3H6O/c1-15(2,11-3-7-13(16)8-4-11)12-5-9-14(17)10-6-12;4-1-3-2-5-3;1-3-2-4-3/h3-10,16-17H,1-2H3;3H,1-2H2;3H,2H2,1H3",ZAZDSNWVKSFFLI-UHFFFAOYSA-N,CC1CO1.CC(C)(c2ccc(O)cc2)c3ccc(O)cc3.ClCC4CO4,-4.374400038,0,1,G1,378.896,4.4528,104.2156,26,4,2,5,3,142,2,2,2,4,65.52,159.8918005,2.18E-07,611.9153622
A-1637,zinc(2+) ion selenite,"InChI=1S/H2O3Se.Zn/c1-4(2)3;/h(H2,1,2,3);/q;+2/p-2",PEUPCBAALXHYHP-UHFFFAOYSA-L,[Zn++].[O-][Se]([O-])=O,-4.079965434,0,1,G1,192.347,-2.8801,6.4405,5,3,0,5,0,26,0,0,0,0,63.19,46.49720043,0,29.87430298