ID,Name,InChI,InChIKey,SMILES,Solubility,SD,Ocurrences,Group,MolWt,MolLogP,MolMR,HeavyAtomCount,NumHAcceptors,NumHDonors,NumHeteroatoms,NumRotatableBonds,NumValenceElectrons,NumAromaticRings,NumSaturatedRings,NumAliphaticRings,RingCount,TPSA,LabuteASA,BalabanJ,BertzCT
A-3837,"trisodium 1-amino-4-{[3-({4-chloro-6-[(2-sulfonatophenyl)amino]-1,3,5-triazin-2-yl}amino)-2,4,6-trimethyl-5-sulfonatophenyl]amino}-9,10-dioxo-9,10-dihydroanthracene-2-sulfonate","InChI=1S/C32H26ClN7O11S3.3Na/c1-13-25(35-19-12-21(53(46,47)48)24(34)23-22(19)27(41)16-8-4-5-9-17(16)28(23)42)14(2)29(54(49,50)51)15(3)26(13)37-32-39-30(33)38-31(40-32)36-18-10-6-7-11-20(18)52(43,44)45;;;/h4-12,35H,34H2,1-3H3,(H,43,44,45)(H,46,47,48)(H,49,50,51)(H2,36,37,38,39,40);;;/q;3*+1/p-3",GWZGQKXBZOLBKS-UHFFFAOYSA-K,[Na+].[Na+].[Na+].Cc1c(Nc2nc(Cl)nc(Nc3ccccc3[S]([O-])(=O)=O)n2)c(C)c(c(C)c1Nc4cc(c(N)c5C(=O)c6ccccc6C(=O)c45)[S]([O-])(=O)=O)[S]([O-])(=O)=O,-0.424427985,0,1,G1,882.198,-5.23704,189.8311,57,18,4,25,9,280,5,0,1,6,306.52,396.8794979,2.90E-06,2850.792291
A-3842,4-fluoroaniline,"InChI=1S/C6H6FN/c7-5-1-3-6(8)4-2-5/h1-4H,8H2",KRZCOLNOCZKSDF-UHFFFAOYSA-N,Nc1ccc(F)cc1,-0.527274385,0,1,G1,111.119,1.4079,30.8124,8,1,1,2,0,42,1,0,0,1,26.02,46.93682922,3.032455532,147.3883389
A-3846,"hexasodium;(3~{Z})-5-[[4-morpholin-4-yl-6-[4-[(~{E})-2-[4-[[4-morpholin-4-yl-6-[[(7~{Z})-8-oxo-7-(phenylhydrazinylidene)-3,6-disulfonatonaphthalen-1-yl]amino]-1,3,5-triazin-2-yl]amino]-2-sulfonatophenyl]ethenyl]-3-sulfonatoanilino]-1,3,5-triazin-2-yl]amino]-4-oxo-3-(phenylhydrazinylidene)naphthalene-2,7-disulfonate","InChI=1S/C60H52N16O22S6.6Na/c77-53-49-35(27-47(103(91,92)93)51(53)73-71-37-7-3-1-4-8-37)25-41(99(79,80)81)31-43(49)63-57-65-55(67-59(69-57)75-17-21-97-22-18-75)61-39-15-13-33(45(29-39)101(85,86)87)11-12-34-14-16-40(30-46(34)102(88,89)90)62-56-66-58(70-60(68-56)76-19-23-98-24-20-76)64-44-32-42(100(82,83)84)26-36-28-48(104(94,95)96)52(54(78)50(36)44)74-72-38-9-5-2-6-10-38;;;;;;/h1-16,25-32,71-72H,17-24H2,(H,79,80,81)(H,82,83,84)(H,85,86,87)(H,88,89,90)(H,91,92,93)(H,94,95,96)(H2,61,63,65,67,69)(H2,62,64,66,68,70);;;;;;/q;6*+1/p-6/b12-11+,73-51+,74-52+;;;;;;",XGUYBIZUGAOMJN-NSVLGCOKSA-H,C1N(CCOC1)C2=NC(=NC(=N2)NC3=C4C(=O)/C(=N/NC5=CC=CC=C5)/C(=CC4=CC(=C3)S(=O)(=O)[O-])S(=O)(=O)[O-])NC6=CC(=C(C=C6)/C=C/C7=C(C=C(C=C7)NC8=NC(=NC(=N8)N9CCOCC9)NC1=C2C(=O)/C(=N/NC3=CC=CC=C3)/C(=CC2=CC(=C1)S(=O)(=O)[O-])S(=O)(=O)[O-])S(=O)(=O)[O-])S(=O)(=O)[O-].[Na+].[Na+].[Na+].[Na+].[Na+].[Na+],-1.144796153,0,1,G1,1673.46,-14.384,364.4064,110,38,6,50,22,540,8,2,4,12,576.52,759.9778807,3.15E-06,5449.668544
A-3847,3-acetyloxolan-2-one,"InChI=1S/C6H8O3/c1-4(7)5-2-3-9-6(5)8/h5H,2-3H2,1H3",OMQHDIHZSDEIFH-UHFFFAOYSA-N,CC(=O)C1CCOC1=O,0.397509321,0.10205466,2,G3,128.127,0.1385,29.747,9,3,0,3,1,50,0,1,1,1,43.37,52.99471988,2.59759685,150.3819626
A-3850,"sodium 3,5-bis(methoxycarbonyl)benzene-1-sulfonate","InChI=1S/C10H10O7S.Na/c1-16-9(11)6-3-7(10(12)17-2)5-8(4-6)18(13,14)15;/h3-5H,1-2H3,(H,13,14,15);/q;+1/p-1",LLHSEQCZSNZLRI-UHFFFAOYSA-M,[Na+].COC(=O)c1cc(cc(c1)[S]([O-])(=O)=O)C(=O)OC,-0.966481992,0,1,G1,296.232,-2.8321,57.0842,19,7,0,9,3,98,1,0,0,1,109.8,131.4833419,3.24E-06,559.645773
A-3852,sodium chloride,InChI=1S/ClH.Na/h1H;/q;+1/p-1,FAPWRFPIFSIZLT-UHFFFAOYSA-M,[Na+].[Cl-],0.734326761,0,1,G1,58.443,-5.992,0,2,0,0,2,0,8,0,0,0,0,0,41.93497064,0,2
A-3853,dilithium pentanedioate,"InChI=1S/C5H8O4.2Li/c6-4(7)2-1-3-5(8)9;;/h1-3H2,(H,6,7)(H,8,9);;/q;2*+1/p-2",PLYZFCVUMQOYCR-UHFFFAOYSA-L,[Li+].[Li+].[O-]C(=O)CCCC([O-])=O,0.342754077,0,1,G1,143.981,-8.3355,23.865,11,4,0,6,4,52,0,0,0,0,80.26,88.70566224,-3.20E-07,111.6508252
A-3854,"4-hydroxy-2,5-dimethyl-2,3-dihydrofuran-3-one","InChI=1S/C6H8O3/c1-3-5(7)6(8)4(2)9-3/h3,8H,1-2H3",INAXVXBDKKUCGI-UHFFFAOYSA-N,CC1OC(=C(O)C1=O)C,0.390669896,0,1,G1,128.127,0.7637,30.8828,9,3,1,3,0,50,0,0,1,1,46.53,52.9378285,2.873007939,180.7419943
A-3855,5-benzoyl-4-hydroxy-2-methoxybenzene-1-sulfonic acid,"InChI=1S/C14H12O6S.Na/c1-20-12-8-11(15)10(7-13(12)21(17,18)19)14(16)9-5-3-2-4-6-9;/h2-8,15H,1H3,(H,17,18,19);/q;+1/p-1",KJCLYACXIWMFCC-UHFFFAOYSA-M,[Na+].COc1cc(O)c(cc1[S]([O-])(=O)=O)C(=O)c2ccccc2,-0.022384851,0,1,G1,330.293,-1.4601,72.4965,22,6,1,8,4,110,2,0,0,2,103.73,149.3297183,2.42E-06,786.4804033
A-3858,"2,2,4-trimethylpentane-1,3-diol","InChI=1S/C8H18O2/c1-6(2)7(10)8(3,4)5-9/h6-7,9-10H,5H2,1-4H3",JCTXKRPTIMZBJT-UHFFFAOYSA-N,CC(C)C(O)C(C)(C)CO,-0.666725926,0.109787037,2,G3,146.23,1.0218,41.7116,10,2,2,2,3,62,0,0,0,0,40.46,62.88231333,4.034118241,97.43071362
A-3865,2-Ethylhexyl (2S)-2-hydroxypropanoate,"InChI=1S/C11H22O3/c1-4-6-7-10(5-2)8-14-11(13)9(3)12/h9-10,12H,4-8H2,1-3H3/t9-,10?/m0/s1",FECDACOUYKFOOP-RGURZIINSA-N,CCCCC(CC)COC(=O)[C@H](C)O,-2.67352571,0,1,G1,202.294,2.1268,55.9458,14,3,1,3,7,84,0,0,0,0,46.53,86.45797325,3.661036491,154.6116337
A-3866,cyclopentanone,InChI=1S/C5H8O/c6-5-3-1-2-4-5/h1-4H2,BGTOWKSIORTVQH-UHFFFAOYSA-N,O=C1CCCC1,0.553677557,0,1,G1,84.118,1.1295,23.475,6,1,0,1,0,34,0,1,1,1,17.07,37.35471043,2.367351851,58.33869643
A-3867,N-methylmethanaminium chloride,"InChI=1S/C2H7N.ClH/c1-3-2;/h3H,1-2H3;1H",IQDGSYLLQPDQDV-UHFFFAOYSA-N,[H+].[Cl-].CNC,1.565718592,0,1,G1,81.546,-3.0479,16.0957,4,1,1,2,0,28,0,0,0,0,12.03,34.29194695,-2.00E-08,9.609640474
A-3868,hydrogen sulfide; manganese,InChI=1S/Mn.H2S/h;1H2,TWJXYBSUGSKHPM-UHFFFAOYSA-N,S.[Mn],-4.159911756,0,1,G1,89.021,0.1103,10.381,2,0,0,2,0,15,0,0,0,0,0,31.15695249,0,2
A-3869,methyl formate,"InChI=1S/C2H4O2/c1-4-2-3/h2H,1H3",TZIHFWKZFHZASV-UHFFFAOYSA-N,COC=O,0.698593779,0.057696709,2,G3,60.052,-0.2108,13.073,4,2,0,2,1,24,0,0,0,0,26.3,24.37926047,2.296835262,18
A-3870,"trisodium 8-hydroxypyrene-1,3,6-trisulfonate","InChI=1S/C16H10O10S3.3Na/c17-11-5-12(27(18,19)20)8-3-4-10-14(29(24,25)26)6-13(28(21,22)23)9-2-1-7(11)15(8)16(9)10;;;/h1-6,17H,(H,18,19,20)(H,21,22,23)(H,24,25,26);;;/q;3*+1/p-3",KXXXUIKPSVVSAW-UHFFFAOYSA-K,[Na+].[Na+].[Na+].Oc1cc(c2ccc3c4c(ccc1c24)c(cc3[S]([O-])(=O)=O)[S]([O-])(=O)=O)[S]([O-])(=O)=O,-0.242535631,0,1,G1,524.393,-7.9861,95.7004,32,10,1,16,3,152,4,0,0,4,191.83,248.3757622,1.71E-06,1630.112194
A-3872,"4-methyl-3a,4,7,7a-tetrahydro-2-benzofuran-1,3-dione","InChI=1S/C9H10O3/c1-5-3-2-4-6-7(5)9(11)12-8(6)10/h2-3,5-7H,4H2,1H3",XPEKVUUBSDFMDR-UHFFFAOYSA-N,CC1C=CCC2C1C(=O)OC2=O,-0.736268462,0,1,G1,166.176,0.8982,41,12,3,0,3,0,64,0,1,2,2,43.37,70.39411203,2.323734962,266.9472131
A-3873,N-isopropyl-2-methylacrylamide,"InChI=1S/C7H13NO/c1-5(2)7(9)8-6(3)4/h6H,1H2,2-4H3,(H,8,9)",YQIGLEFUZMIVHU-UHFFFAOYSA-N,CC(C)NC(=O)C(C)=C,-0.620142884,0,1,G1,127.187,1.0871,38.0927,9,1,1,2,2,52,0,0,0,0,29.1,55.95068497,3.647424692,126.8778406
A-3874,"disodium 2,2'-ethene-1,2-diylbis[5-({4-anilino-6-[(2-hydroxyethyl)amino]-1,3,5-triazin-2-yl}amino)benzenesulfonate]","InChI=1S/C36H36N12O8S2.2Na/c49-19-17-37-31-43-33(39-25-7-3-1-4-8-25)47-35(45-31)41-27-15-13-23(29(21-27)57(51,52)53)11-12-24-14-16-28(22-30(24)58(54,55)56)42-36-46-32(38-18-20-50)44-34(48-36)40-26-9-5-2-6-10-26;;/h1-16,21-22,49-50H,17-20H2,(H,51,52,53)(H,54,55,56)(H3,37,39,41,43,45,47)(H3,38,40,42,44,46,48);;/q;2*+1/p-2/b12-11+;;",HIMNALZNLAOESZ-YHPRVSEPSA-L,[Na+].[Na+].OCCNc1nc(Nc2ccccc2)nc(Nc3ccc(\C=C\c4ccc(Nc5nc(NCCO)nc(Nc6ccccc6)n5)cc4[S]([O-])(=O)=O)c(c3)[S]([O-])(=O)=O)n1,-1.4592144,0,1,G1,872.858,-2.174,214.5582,60,20,8,24,18,300,6,0,0,6,304.38,388.5065236,3.97E-06,2455.935985
A-3875,2-(2-ethoxyethoxy)-2-methylpropane,"InChI=1S/C8H18O2/c1-5-9-6-7-10-8(2,3)4/h5-7H2,1-4H3",NUNQKTCKURIZQX-UHFFFAOYSA-N,CCOCCOC(C)(C)C,-0.687915225,0.045540235,2,G3,146.23,1.838,42.198,10,2,0,2,4,62,0,0,0,0,18.46,63.52093629,3.043758409,73.81700155
A-3876,3-methoxybutyl acetate,"InChI=1S/C7H14O3/c1-6(9-3)4-5-10-7(2)8/h6H,4-5H2,1-3H3",QMYGFTJCQFEDST-UHFFFAOYSA-N,COC(C)CCOC(C)=O,-0.687784528,0.47281938,3,G5,146.186,0.9745,37.721,10,3,0,3,4,60,0,0,0,0,35.53,61.31751627,3.110465476,101.0243417
A-3877,"Sulfuric acid, mono-C12-18-alkyl esters, sodium salts","InChI=1S/C15H32O4S.Na/c1-2-3-4-5-6-7-8-9-10-11-12-13-14-15-19-20(16,17)18;/h2-15H2,1H3,(H,16,17,18);/q;+1/p-1",SMECTXYFLVLAJE-UHFFFAOYSA-M,[Na+].CCCCCCCCCCCCCCCO[S]([O-])(=O)=O,-1.042005529,0.460409377,2,G3,330.466,1.5584,81.3442,21,4,0,6,15,122,0,0,0,0,66.43,153.2130254,0,294.0487427
A-3878,carbamimidoylsulfinic acid,"InChI=1S/CH4N2O2S/c2-1(3)6(4)5/h(H3,2,3)(H,4,5)",FYOWZTWVYZOZSI-UHFFFAOYSA-N,NC(=N)[S](O)=O,-0.556792816,0,1,G1,108.122,-0.89843,22.6853,6,2,3,5,0,36,0,0,0,0,87.17,37.14198456,3.567703455,77.54887502
A-3880,tert-butyl 2-methylpropaneperoxoate,"InChI=1S/C8H16O3/c1-6(2)7(9)10-11-8(3,4)5/h6H,1-5H3",PFBLRDXPNUJYJM-UHFFFAOYSA-N,CC(C)C(=O)OOC(C)(C)C,-1.607002567,0,1,G1,160.213,1.9157,41.768,11,3,0,3,2,66,0,0,0,0,35.53,67.6117537,3.636616381,132.7628219
A-3881,"(2,2-dimethoxyethyl)benzene","InChI=1S/C10H14O2/c1-11-10(12-2)8-9-6-4-3-5-7-9/h3-7,10H,8H2,1-2H3",WNJSKZBEWNVKGU-UHFFFAOYSA-N,COC(Cc1ccccc1)OC,-1.629618671,0,1,G1,166.22,1.848,47.952,12,2,0,2,4,66,1,0,0,1,18.46,73.11826204,2.508062495,204.3383811
A-3882,"1,3,5-triazine-2,4,6-triamine phosphate","InChI=1S/C3H6N6.H3O4P/c4-1-7-2(5)9-3(6)8-1;1-5(2,3)4/h(H6,4,5,6,7,8,9);(H3,1,2,3,4)",XFZRQAZGUOTJCS-UHFFFAOYSA-N,Nc1nc(N)nc(N)n1.O[P](O)(O)=O,-1.759410193,0.056971676,2,G3,224.117,-2.3104,47.3271,14,7,6,11,0,80,1,0,0,1,194.49,78.04816224,2.92E-07,292.1874109
A-3883,"2H,4H,4aH,5H,9bH-indeno[1,2-d][1,3]dioxine","InChI=1S/C11H12O2/c1-2-4-10-8(3-1)5-9-6-12-7-13-11(9)10/h1-4,9,11H,5-7H2",CZSXBBWOROMVEW-UHFFFAOYSA-N,C1OCC2Cc3ccccc3C2O1,-1.656093273,0,1,G1,176.215,1.9043,48.281,13,2,0,2,0,68,1,1,2,3,18.46,77.47154184,2.007800561,321.621247
A-3884,"3-[(4-hydroxy-3-methoxyphenyl)methyl]pentane-2,4-dione","InChI=1S/C13H16O4/c1-8(14)11(9(2)15)6-10-4-5-12(16)13(7-10)17-3/h4-5,7,11,16H,6H2,1-3H3",IFGDRUTWCITGHG-UHFFFAOYSA-N,COc1cc(CC(C(C)=O)C(C)=O)ccc1O,-1.786365949,0,1,G1,236.267,1.7375,63.2148,17,4,1,4,5,92,1,0,0,1,63.6,100.2168211,2.937856639,423.0456447
A-3889,"(2R,3R,4R,5S)-2-(hydroxymethyl)piperidine-3,4,5-triol","InChI=1S/C6H13NO4/c8-2-3-5(10)6(11)4(9)1-7-3/h3-11H,1-2H2/t3-,4+,5-,6-/m1/s1",LXBIFEVIBLOUGU-JGWLITMVSA-N,OC[C@H]1NC[C@H](O)[C@@H](O)[C@@H]1O,0.404352043,0,1,G1,163.173,-2.9668,36.8969,11,5,5,5,1,66,0,1,1,1,92.95,64.28492764,2.516424271,129.7506907
A-3890,diethyl chloromalonate,"InChI=1S/C7H11ClO4/c1-3-11-6(9)5(8)7(10)12-4-2/h5H,3-4H2,1-2H3",WLWCQKMQYZFTDR-UHFFFAOYSA-N,CCOC(=O)C(Cl)C(=O)OCC,-1.720972355,0,1,G1,194.614,0.72,42.907,12,4,0,5,4,70,0,0,0,0,52.6,75.7823046,3.910265237,150.7893111
A-3891,sodium 6-amino-4-hydroxy-5-[(E)-2-[2-(trifluoromethyl)phenyl]diazen-1-yl]naphthalene-2-sulfonate,"InChI=1S/C17H12F3N3O4S.Na/c18-17(19,20)11-3-1-2-4-13(11)22-23-16-12(21)6-5-9-7-10(28(25,26)27)8-14(24)15(9)16;/h1-8,21-23H,(H,25,26,27);/q;+1/p-1",GVCNKWIFAPJNDM-UHFFFAOYSA-M,[Na+].[O-][S](=O)(=O)C1=CC(=O)C2=C(NNc3ccccc3C(F)(F)F)C(=N)C=CC2=C1,-2.068630062,0,1,G1,433.343,-0.59223,92.9653,29,7,3,12,4,146,1,0,2,3,122.18,185.1310673,3.00E-06,1118.977453
A-3892,2-(2-{2-[(2-methylprop-2-enoyl)oxy]ethoxy}ethoxy)ethyl 2-methylprop-2-enoate,"InChI=1S/C14H22O6/c1-11(2)13(15)19-9-7-17-5-6-18-8-10-20-14(16)12(3)4/h1,3,5-10H2,2,4H3",HWSSEYVMGDIFMH-UHFFFAOYSA-N,CC(=C)C(=O)OCCOCCOCCOC(=O)C(C)=C,-1.900555252,0,1,G1,286.324,1.2582,73.184,20,6,0,6,11,114,0,0,0,0,71.06,118.8815176,3.252437858,313.5732912
A-3893,4-[(4-amino-3-methylcyclohexyl)methyl]-2-methylcyclohexan-1-amine,"InChI=1S/C15H30N2/c1-10-7-12(3-5-14(10)16)9-13-4-6-15(17)11(2)8-13/h10-15H,3-9,16-17H2,1-2H3",IGSBHTZEJMPDSZ-UHFFFAOYSA-N,CC1CC(CCC1N)CC2CCC(N)C(C)C2,-1.821038361,0.131434931,3,G5,238.419,2.9035,73.5778,17,2,2,2,2,100,0,2,2,2,52.04,106.5165597,1.775472419,217.0763189
A-3895,"2,5-dimethylphenol","InChI=1S/C8H10O/c1-6-3-4-7(2)8(9)5-6/h3-5,9H,1-2H3",NKTOLZVEWDHZMU-UHFFFAOYSA-N,Cc1ccc(C)c(O)c1,-1.537582757,0.023472016,2,G3,122.167,2.00904,37.5808,9,1,1,1,0,48,1,0,0,1,20.23,54.9555211,3.17167803,215.8076621
A-3896,"{[(2R,3S,4R,5R)-5-(6-amino-9H-purin-9-yl)-3,4-dihydroxyoxolan-2-yl]methoxy}phosphonic acid","InChI=1S/C10H14N5O7P/c11-8-5-9(13-2-12-8)15(3-14-5)10-7(17)6(16)4(22-10)1-21-23(18,19)20/h2-4,6-7,10,16-17H,1H2,(H2,11,12,13)(H2,18,19,20)",UDMBCSSLTHHNCD-UHFFFAOYSA-N,Nc1ncnc2n(cnc12)C3OC(CO[P](O)(O)=O)C(O)C3O,-1.995302619,0.22735131,2,G3,347.224,-1.863,73.6551,23,10,5,13,4,126,2,1,1,3,186.07,128.3035498,1.851147527,763.1378284
A-3897,"1,1,2-trichloroethane","InChI=1S/C2H3Cl3/c3-1-2(4)5/h2H,1H2",UBOXGVDOUJQMTN-UHFFFAOYSA-N,ClCC(Cl)Cl,-1.581104063,0.050652031,2,G3,133.405,2.0289,26.214,5,0,0,3,1,32,0,0,0,0,0,46.01399182,2.539538861,18.85475297
A-3898,"2,3,5-trimethylbenzene-1,4-diol","InChI=1S/C9H12O2/c1-5-4-8(10)6(2)7(3)9(5)11/h4,10-11H,1-3H3",AUFZRCJENRSRLY-UHFFFAOYSA-N,Cc1cc(O)c(C)c(C)c1O,-1.638326634,0,1,G1,152.193,2.02306,43.9826,11,2,2,2,0,60,1,0,0,1,40.46,66.11469697,3.455546484,263.8544742
A-3900,[2-(4-aminobenzenesulfonyl)ethoxy]sulfonic acid,"InChI=1S/C8H11NO6S2/c9-7-1-3-8(4-2-7)16(10,11)6-5-15-17(12,13)14/h1-4H,5-6,9H2,(H,12,13,14)",IALORYHODRVWKZ-UHFFFAOYSA-N,Nc1ccc(cc1)[S](=O)(=O)CCO[S](O)(=O)=O,-1.90511867,0,1,G1,281.311,-0.1381,60.4078,17,6,2,9,5,96,1,0,0,1,123.76,99.07776154,2.728446449,574.9463482
A-3903,"tris(prop-2-en-1-yl)-1,3,5-triazinane-2,4,6-trione","InChI=1S/C12H15N3O3/c1-4-7-13-10(16)14(8-5-2)12(18)15(9-6-3)11(13)17/h4-6H,1-3,7-9H2",KOMNUTZXSVSERR-UHFFFAOYSA-N,C=CCN1C(=O)N(CC=C)C(=O)N(CC=C)C1=O,-1.852601969,0,1,G1,249.27,-0.2703,69.813,18,6,0,6,6,96,1,0,0,1,66,103.4204978,3.742796483,525.2206142
A-3904,methyl 3-aminopyrazine-2-carboxylate,"InChI=1S/C6H7N3O2/c1-11-6(10)4-5(7)9-3-2-8-4/h2-3H,1H3,(H2,7,9)",INCSQLZZXBPATR-UHFFFAOYSA-N,COC(=O)c1nccnc1N,-1.642266052,0,1,G1,153.141,-0.1546,37.7839,11,5,1,5,1,58,1,0,0,1,78.1,63.21554134,3.032662156,274.2848351
A-3905,"1,3,5-triazine-2,4,6-triamine","InChI=1S/C3H6N6/c4-1-7-2(5)9-3(6)8-1/h(H6,4,5,6,7,8,9)",JDSHMPZPIAZGSV-UHFFFAOYSA-N,Nc1nc(N)nc(N)n1,-1.559215049,0.076739538,3,G5,126.123,-1.3818,33.0642,9,6,3,6,0,48,1,0,0,1,116.73,51.11001915,3.16567031,169.0651777
A-3907,1-nitroguanidine,"InChI=1S/CH4N4O2/c2-1(3)4-5(6)7/h(H4,2,3,4)",IDCPFAYURAQKDZ-UHFFFAOYSA-N,NC(N)=N[N+]([O-])=O,-1.485842464,0.083963435,4,G5,104.069,-1.5485,22.8042,7,2,2,6,1,40,0,0,0,0,107.54,38.93746665,3.679228032,102.2574223
A-3908,2-(trifluoromethyl)aniline,"InChI=1S/C7H6F3N/c8-7(9,10)5-3-1-2-4-6(5)11/h1-4H,11H2",VBLXCTYLWZJBKA-UHFFFAOYSA-N,Nc1ccccc1C(F)(F)F,-1.675686709,0,1,G1,161.126,2.2876,35.8564,11,1,1,4,0,60,1,0,0,1,26.02,61.63284214,3.141109191,254.1077533
A-3909,1-[4-(4-hydroxyphenyl)piperazin-1-yl]ethan-1-one,"InChI=1S/C12H16N2O2/c1-10(15)13-6-8-14(9-7-13)11-2-4-12(16)5-3-11/h2-5,16H,6-9H2,1H3",AGVNLFCRZULMKK-UHFFFAOYSA-N,CC(=O)N1CCN(CC1)c2ccc(O)cc2,-1.817914488,0,1,G1,220.272,1.0607,62.5738,16,3,1,4,1,86,1,1,1,2,43.78,95.09064784,1.985750187,367.1100797
A-3910,"4-(oxiran-2-ylmethoxy)-N,N-bis(oxiran-2-ylmethyl)aniline","InChI=1S/C15H19NO4/c1-3-12(17-9-15-10-20-15)4-2-11(1)16(5-13-7-18-13)6-14-8-19-14/h1-4,13-15H,5-10H2",AHIPJALLQVEEQF-UHFFFAOYSA-N,C1OC1COc2ccc(cc2)N(CC3CO3)CC4CO4,-1.919234725,0,1,G1,277.32,1.0682,73.37,20,5,0,5,8,108,1,3,3,4,50.06,117.9124033,1.376002544,437.4462471
A-3911,1-aminoguanidine; carbonic acid,"InChI=1S/CH6N4.CH2O3/c2-1(3)5-4;2-1(3)4/h4H2,(H4,2,3,5);(H2,2,3,4)",OTXHZHQQWQTQMW-UHFFFAOYSA-N,NN=C(N)N.OC(O)=O,-1.615379285,0.111441387,3,G5,136.111,-1.6441,30.6508,9,3,5,7,0,54,0,0,0,0,147.95,50.7451445,0,102.3803753
A-3914,methyl(naphthalen-1-ylmethyl)amine,"InChI=1S/C12H13N/c1-13-9-11-7-4-6-10-5-2-3-8-12(10)11/h2-8,13H,9H2,1H3",MQRIUFVBEVFILS-UHFFFAOYSA-N,CNCc1cccc2ccccc12,-1.715098888,0,1,G1,171.243,2.5592,56.7117,13,1,1,1,2,66,2,0,0,2,12.03,78.39281406,2.61387119,401.2897135
A-3915,N-(2-methoxyphenyl)-3-oxobutanamide,"InChI=1S/C11H13NO3/c1-8(13)7-11(14)12-9-5-3-4-6-10(9)15-2/h3-6H,7H2,1-2H3,(H,12,14)",KYYRTDXOHQYZPO-UHFFFAOYSA-N,COc1ccccc1NC(=O)CC(C)=O,-1.805905521,0,1,G1,207.229,1.6128,56.9217,15,3,1,4,4,80,1,0,0,1,55.4,88.2425653,2.711793612,373.8507128
A-3919,2-(propan-2-yloxy)propane,"InChI=1S/C6H14O/c1-5(2)7-6(3)4/h5-6H,1-4H3",ZAFNJMIOTHYJRJ-UHFFFAOYSA-N,CC(C)OC(C)C,-1.516592758,0.273711324,4,G5,102.177,1.8198,31.357,7,1,0,1,2,44,0,0,0,0,9.23,45.67750683,2.953223175,33.44467836
A-3921,2-bromopropane,"InChI=1S/C3H7Br/c1-3(2)4/h3H,1-2H3",NAMYKGVDVNBCFQ-UHFFFAOYSA-N,CC(C)Br,-1.598518701,0.018480608,3,G5,122.993,1.7897,24.063,4,0,0,1,0,26,0,0,0,0,0,35.33668286,2.323790008,8
A-3922,4-methylbenzene-1-sulfonamide,"InChI=1S/C7H9NO2S/c1-6-2-4-7(5-3-6)11(8,9)10/h2-5H,1H3,(H2,8,9,10)",LMYRWZFENFIFIT-UHFFFAOYSA-N,Cc1ccc(cc1)[S](N)(=O)=O,-1.742195335,0,1,G1,171.221,0.64242,42.5522,11,2,1,4,1,60,1,0,0,1,60.16,65.89701182,3.201515931,339.2082525
A-3924,(ethylsulfanyl)ethane,"InChI=1S/C4H10S/c1-3-5-4-2/h3-4H2,1-2H3",LJSQFQKUNVCTIA-UHFFFAOYSA-N,CCSCC,-1.468024827,0.064012413,2,G3,90.191,1.7594,28.673,5,1,0,1,2,32,0,0,0,0,0,37.9571874,2.190609687,11.11941548
A-3926,6-methylhept-5-en-2-one,"InChI=1S/C8H14O/c1-7(2)5-4-6-8(3)9/h5H,4,6H2,1-3H3",UHEPJGULSIKKTP-UHFFFAOYSA-N,CC(C)=CCCC(C)=O,-1.621048971,0,1,G1,126.199,2.3218,39.346,9,1,0,1,3,52,0,0,0,0,17.07,56.7657649,3.305042994,118.529325
A-3929,1-[2-(2-butoxyethoxy)ethoxy]butane,"InChI=1S/C12H26O3/c1-3-5-7-13-9-11-15-12-10-14-8-6-4-2/h3-12H2,1-2H3",KZVBBTZJMSWGTK-UHFFFAOYSA-N,CCCCOCCOCCOCCCC,-1.862006084,0.180942274,3,G5,218.337,2.6364,62.273,15,3,0,3,12,92,0,0,0,0,27.69,94.09424997,2.807925739,95.04035409
A-3931,2-isopropenyl-5-methylcyclohexanol,"InChI=1S/C10H18O/c1-7(2)9-5-4-8(3)6-10(9)11/h8-11H,1,4-6H2,2-3H3",ZYTMANIQRDEHIO-UHFFFAOYSA-N,CC1CCC(C(O)C1)C(C)=C,-1.711112365,0,1,G1,154.253,2.3596,47.3258,11,1,1,1,1,64,0,1,1,1,20.23,69.12252962,2.502755696,150.9517669
A-3932,2-methoxy-5-methylaniline,"InChI=1S/C8H11NO/c1-6-3-4-8(10-2)7(9)5-6/h3-5H,9H2,1-2H3",WXWCDTXEKCVRRO-UHFFFAOYSA-N,COc1ccc(C)cc1N,-1.660175876,0,1,G1,137.182,1.58582,42.1434,10,2,1,2,1,54,1,0,0,1,35.25,60.61472327,3.069982715,232.6992424
A-3933,"2-phenyl-4,5-dihydro-1H-imidazole; benzene-1,2,4,5-tetracarboxylic acid","InChI=1S/C10H6O8.C9H10N2/c11-7(12)3-1-4(8(13)14)6(10(17)18)2-5(3)9(15)16;1-2-4-8(5-3-1)9-10-6-7-11-9/h1-2H,(H,11,12)(H,13,14)(H,15,16)(H,17,18);1-5H,6-7H2,(H,10,11)",TZBVXASHYYFGHZ-UHFFFAOYSA-N,OC(=O)c1cc(C(O)=O)c(cc1C(O)=O)C(O)=O.C2CN=C(N2)c3ccccc3,-2.125310985,0,1,G1,400.343,1.5158,100.1279,29,6,5,10,5,150,2,0,1,3,173.59,163.3113002,2.30E-07,900.5187714
A-3934,4-chloroaniline,"InChI=1S/C6H6ClN/c7-5-1-3-6(8)4-2-5/h1-4H,8H2",QSNSCYSYFYORTR-UHFFFAOYSA-N,Nc1ccc(Cl)cc1,-1.628640918,0.065972331,4,G5,127.574,1.9222,35.8644,8,1,1,2,0,42,1,0,0,1,26.02,53.07456004,3.032455532,147.3883389
A-3935,5-methylheptan-3-one,"InChI=1S/C8H16O/c1-4-7(3)6-8(9)5-2/h7H,4-6H2,1-3H3",PSBKJPTZCVYXSD-UHFFFAOYSA-N,CCC(C)CC(=O)CC,-1.630817582,0,1,G1,128.215,2.4017,39.37,9,1,0,1,4,54,0,0,0,0,17.07,57.45536793,3.343000246,86.56842503
A-3937,aluminum tris(4-oxopent-2-en-2-olate),"InChI=1S/3C5H8O2.Al/c3*1-4(6)3-5(2)7;/h3*3,6H,1-2H3;/q;;;+3/p-3",KILURZWTCGSYRE-UHFFFAOYSA-K,[Al+3].CC([O-])=CC(C)=O.CC([O-])=CC(C)=O.CC([O-])=CC(C)=O,-2.033837746,0,1,G1,324.309,-0.8623,79.068,22,6,0,7,3,120,0,0,0,0,120.39,141.5320744,-1.08E-07,368.3806002
A-3939,chlorodifluoromethane,InChI=1S/CHClF2/c2-1(3)4/h1H,VOPWNXZWBYDODV-UHFFFAOYSA-N,FC(F)Cl,-1.459734159,0.01733292,2,G3,86.468,1.4478,11.857,4,0,0,3,0,26,0,0,0,0,0,27.37358806,2.323790008,10.7548875
A-3941,"2-[[4,5-dihydro-3-methyl-5-oxo-1-[4-[[2-(sulphooxy)ethyl]sulphonyl]phenyl]-1H-pyrazol-4-yl]azo]naphthalene-1,5-disulphonic acid, potassium sodium salt","InChI=1S/C22H22N4O13S4.K.Na/c1-13-20(22(27)26(25-13)14-5-7-15(8-6-14)40(28,29)12-11-39-43(36,37)38)24-23-18-10-9-16-17(21(18)42(33,34)35)3-2-4-19(16)41(30,31)32;;/h2-10,20,22,27H,11-12H2,1H3,(H,30,31,32)(H,33,34,35)(H,36,37,38);;/q;2*+1/p-2",GARUHJAOVJVADA-UHFFFAOYSA-L,[Na+].[K+].CC1=NN(C(O)C1N=Nc2ccc3c(cccc3[S]([O-])(=O)=O)c2[S](O)(=O)=O)c4ccc(cc4)[S](=O)(=O)CCO[S]([O-])(=O)=O,-0.392839827,0,1,G1,738.773,-5.0841,145.7686,45,16,2,23,10,232,3,0,1,4,272.69,322.390107,3.53E-06,2093.780377
A-3943,"but-2-yne-1,4-diol","InChI=1S/C4H6O2/c5-3-1-2-4-6/h5-6H,3-4H2",DLDJFQGPPSQZKI-UHFFFAOYSA-N,OCC#CCO,1.536339003,0.449388338,3,G5,86.09,-1.0256,21.9476,6,2,2,2,0,34,0,0,0,0,40.46,36.42177027,2.898667618,59.35260811