ID,Name,InChI,InChIKey,SMILES,Solubility,SD,Ocurrences,Group,MolWt,MolLogP,MolMR,HeavyAtomCount,NumHAcceptors,NumHDonors,NumHeteroatoms,NumRotatableBonds,NumValenceElectrons,NumAromaticRings,NumSaturatedRings,NumAliphaticRings,RingCount,TPSA,LabuteASA,BalabanJ,BertzCT
A-497,1-[3-(trifluoromethyl)phenyl]ethan-1-one,"InChI=1S/C9H7F3O/c1-6(13)7-3-2-4-8(5-7)9(10,11)12/h2-5H,1H3",ABXGMGUHGLQMAW-UHFFFAOYSA-N,CC(=O)c1cccc(c1)C(F)(F)F,-2.482107917,0,1,G1,188.148,2.908,41.4485,13,1,0,4,1,70,1,0,0,1,17.07,73.18435777,3.131063794,327.8768535
A-498,"2,4-dichloroaniline","InChI=1S/C6H5Cl2N/c7-4-1-2-6(9)5(8)3-4/h1-3H,9H2",KQCMTOWTPBNWDB-UHFFFAOYSA-N,Nc1ccc(Cl)cc1Cl,-2.417174258,0.069589588,2,G3,162.019,2.5756,40.8744,9,1,1,3,0,48,1,0,0,1,26.02,63.37782627,3.17167803,222.2978871
A-499,"1,7,7-trimethylbicyclo[2.2.1]hept-2-yl acetate","InChI=1S/C12H20O2/c1-8(13)14-10-7-9-5-6-12(10,4)11(9,2)3/h9-10H,5-7H2,1-4H3/t9-,10+,12+/m0/s1",KGEKLUUHTZCSIP-HOSYDEDBSA-N,CC(=O)O[C@@H]1C[C@@H]2CC[C@@]1(C)C2(C)C,-3.496323842,0,1,G1,196.29,2.7643,54.783,14,2,0,2,1,80,0,2,2,2,26.3,86.01701931,2.225540267,269.4952945
A-500,4-[4-(hydrazinesulfonyl)phenoxy]benzene-1-sulfonohydrazide,"InChI=1S/C12H14N4O5S2/c13-15-22(17,18)11-5-1-9(2-6-11)21-10-3-7-12(8-4-10)23(19,20)16-14/h1-8,15-16H,13-14H2",NBOCQTNZUPTTEI-UHFFFAOYSA-N,NN[S](=O)(=O)c1ccc(Oc2ccc(cc2)[S](=O)(=O)NN)cc1,-3.758489195,0,1,G1,358.401,-0.2171,81.9758,23,7,4,11,6,124,2,0,0,2,153.61,132.8433721,2.170531164,802.5532181
A-501,strontium(2+) ion hydrogen phosphate,"InChI=1S/H3O4P.Sr/c1-5(2,3)4;/h(H3,1,2,3,4);/q;+2/p-3",HKSVWJWYDJQNEV-UHFFFAOYSA-K,[Sr++].[O-][P]([O-])([O-])=O,-3.468385388,0,1,G1,182.59,-3.2054,13.3605,6,4,0,6,0,32,0,0,0,0,86.25,71.69461663,0,53.6836744
A-503,"Alkenes, C9-11, C10-rich","InChI=1S/C10H16/c1-3-5-7-9-10-8-6-4-2/h3,5-8H,1,4,9-10H2,2H3/b7-5+,8-6+",FDBJNQUXZRDJHC-KQQUZDAGSA-N,CC/C=C/CC/C=C/C=C,-3.34190657,0.120516033,2,G3,136.238,3.475,48.002,10,0,0,0,5,56,0,0,0,0,0,63.95492096,3.114092665,118
A-504,"(2Z)-but-2-ene-1,4-diol","InChI=1S/C4H8O2/c5-3-1-2-4-6/h1-2,5-6H,3-4H2/b2-1-",ORTVZLZNOYNASJ-UPHRSURJSA-N,OC\C=C/CO,0.846685164,0,1,G1,88.106,-0.4728,23.3116,6,2,2,2,2,36,0,0,0,0,40.46,36.73294184,2.734385994,34.81274391
A-506,2-[2-(2-ethoxyethoxy)ethoxy]ethyl methacrylate,"InChI=1S/C12H22O5/c1-4-14-5-6-15-7-8-16-9-10-17-12(13)11(2)3/h2,4-10H2,1,3H3",RBFPEAGEJJSYCX-UHFFFAOYSA-N,CCOCCOCCOCCOC(=O)C(C)=C,-0.603011426,0,1,G1,246.303,1.1754,63.904,17,5,0,5,11,100,0,0,0,0,53.99,102.6797143,3.084416123,214.9415278
A-508,"(6R,7R)-3-[(acetyloxy)methyl]-7-amino-8-oxo-5-thia-1-azabicyclo[4.2.0]oct-2-ene-2-carboxylic acid","InChI=1S/C10H12N2O5S/c1-4(13)17-2-5-3-18-9-6(11)8(14)12(9)7(5)10(15)16/h6,9H,2-3,11H2,1H3,(H,15,16)/t6-,9-/m1/s1",HSHGZXNAXBPPDL-HZGVNTEJSA-N,CC(=O)OCC1=C(N2[C@H](SC1)[C@H](N)C2=O)C(O)=O,-2.648977722,0,1,G1,272.282,-0.8694,62.3622,18,6,2,8,3,98,0,1,2,2,109.93,106.9376444,2.258623707,461.1843921
A-511,decanoic acid,"InChI=1S/C10H20O2/c1-2-3-4-5-6-7-8-9-10(11)12/h2-9H2,1H3,(H,11,12)",GHVNFZFCNZKVNT-UHFFFAOYSA-N,CCCCCCCCCC(O)=O,-3.445216137,0.192551392,2,G3,172.268,3.2117,50.2458,12,1,1,2,8,72,0,0,0,0,37.3,74.97948591,2.861387339,110.4062069
A-514,2-methylpropane,"InChI=1S/C4H10/c1-4(2)3/h4H,1-3H3",NNPPMTNAJDCUHE-UHFFFAOYSA-N,CC(C)C,-2.977604072,0.265370444,5,G5,58.124,1.6623,20.512,4,0,0,0,0,26,0,0,0,0,0,27.83407737,2.323790008,4.754887502
A-515,butane,"InChI=1S/C4H10/c1-3-4-2/h3-4H2,1-2H3",IJDNQMDRQITEOD-UHFFFAOYSA-N,CCCC,-2.977604072,0.256788365,5,G5,58.124,1.8064,20.582,4,0,0,0,1,26,0,0,0,0,0,27.83407737,1.974744871,2
A-516,ethane,InChI=1S/C2H6/c1-2/h1-2H3,OTMSDBZUPAUEDD-UHFFFAOYSA-N,CC,-2.691382006,0.599586986,5,G4,30.07,1.0262,11.348,2,0,0,0,0,14,0,0,0,0,0,15.10419314,1,0
A-519,"3-{6,6-dimethylbicyclo[3.1.1]hept-2-en-2-yl}propanal","InChI=1S/C12H18O/c1-12(2)10-6-5-9(4-3-7-13)11(12)8-10/h5,7,10-11H,3-4,6,8H2,1-2H3",DDFGFKGJBOILQZ-UHFFFAOYSA-N,CC1(C)C2CC=C(CCC=O)C1C2,-3.46576061,0,1,G1,178.275,2.9579,53.376,13,1,0,1,3,72,0,1,3,3,17.07,80.21387105,2.050835296,249.8500914
A-520,2-(4-hydroxyphenyl)acetic acid,"InChI=1S/C8H8O3/c9-7-3-1-6(2-4-7)5-8(10)11/h1-4,9H,5H2,(H,10,11)",XQXPVVBIMDBYFF-UHFFFAOYSA-N,OC(=O)Cc1ccc(O)cc1,-0.399080411,0.395483155,3,G5,152.149,1.0193,39.4466,11,2,2,3,2,58,1,0,0,1,57.53,63.91127695,2.736298072,250.5446101
A-521,(4-methoxyphenyl)methyl acetate,"InChI=1S/C10H12O3/c1-8(11)13-7-9-3-5-10(12-2)6-4-9/h3-6H,7H2,1-2H3",HFNGYHHRRMSKEU-UHFFFAOYSA-N,COc1ccc(COC(C)=O)cc1,-2.474006642,0.007756083,2,G3,180.203,1.7583,48.464,13,3,0,3,3,70,1,0,0,1,35.53,77.27978414,2.537561264,276.7262618
A-523,ammonium fluoride hydrofluoride,InChI=1S/2FH.H3N/h2*1H;1H3,KVBCYCWRDBDGBG-UHFFFAOYSA-N,[H+].[NH4+].[F-].[F-],1.023394133,0,1,G1,57.043,-5.5033,7.0968,3,0,1,3,0,24,0,0,0,0,36.5,18.44635242,0,6
A-525,"6-phenyl-1,3,5-triazine-2,4-diamine","InChI=1S/C9H9N5/c10-8-12-7(13-9(11)14-8)6-4-2-1-3-5-6/h1-5H,(H4,10,11,12,13,14)",GZVHEAJQGPRDLQ-UHFFFAOYSA-N,Nc1nc(N)nc(n1)c2ccccc2,-2.494168514,0.136500636,2,G3,187.206,0.703,54.0878,14,5,2,5,1,70,2,0,0,2,90.71,80.82722266,2.52130359,419.9602313
A-526,4-tert-butylcyclohexyl prop-2-enoate,"InChI=1S/C13H22O2/c1-5-12(14)15-11-8-6-10(7-9-11)13(2,3)4/h5,10-11H,1,6-9H2,2-4H3",LAIJAUHBAWLPCO-UHFFFAOYSA-N,CC(C)(C)C1CCC(CC1)OC(=O)C=C,-3.539328096,0.539431241,3,G4,210.317,3.3205,61.49,15,2,0,2,2,86,0,1,1,1,26.3,92.69818954,2.35965905,229.4107329
A-533,"1,4-dibromo-2-ethenylbenzene","InChI=1S/C8H6Br2/c1-2-6-5-7(9)3-4-8(6)10/h2-5H,1H2",KWVKCGGJLLNVSC-UHFFFAOYSA-N,Brc1ccc(Br)c(C=C)c1,-4.578730408,0,1,G1,261.944,3.8546,51.933,10,0,0,2,1,52,1,0,0,1,0,77.20677953,3.211310929,253.4345459
A-535,3-hydroxy-N-(2-methylphenyl)naphthalene-2-carboxamide,"InChI=1S/C18H15NO2/c1-12-6-2-5-9-16(12)19-18(21)15-10-13-7-3-4-8-14(13)11-17(15)20/h2-11,20H,1H3,(H,19,21)",FBLAHUMENIHUGG-UHFFFAOYSA-N,Cc1ccccc1NC(=O)c2cc3ccccc3cc2O,-4.623441954,0,1,G1,277.323,4.10612,84.745,21,2,2,3,2,104,3,0,0,3,49.33,122.4056641,1.979471019,824.3162039
A-539,"methyl 3-amino-5,6-dichloropyrazine-2-carboxylate","InChI=1S/C6H5Cl2N3O2/c1-13-6(12)2-5(9)11-4(8)3(7)10-2/h1H3,(H2,9,11)",USYMCUGEGUFUBI-UHFFFAOYSA-N,COC(=O)c1nc(Cl)c(Cl)nc1N,-4.534838609,0,1,G1,222.031,1.1522,47.8039,13,5,1,7,1,70,1,0,0,1,78.1,83.82207379,3.231230605,355.9777552
A-541,"2,4,6,7-tetraoxa-1$l^{3},3$l^{2},5$l^{3}-triplumbabicyclo[3.1.1]heptane",InChI=1S/4O.3Pb,XMFOQHDPRMAJNU-UHFFFAOYSA-N,O1[Pb]O[Pb]2O[Pb]1O2,-4.008053211,0,1,G1,685.596,-1.416,21.602,7,4,0,7,0,36,0,3,3,3,36.92,74.15253193,1.989747225,63.49431756
A-542,"N,N-dibutyloctadec-9-enamide","InChI=1S/C26H51NO/c1-4-7-10-11-12-13-14-15-16-17-18-19-20-21-22-23-26(28)27(24-8-5-2)25-9-6-3/h15-16H,4-14,17-25H2,1-3H3/b16-15-",YMGHPIVBMBXPCR-NXVVXOECSA-N,CCCCCCCC\C=C/CCCCCCCC(=O)N(CCCC)CCCC,-4.788985441,0,1,G1,393.7,8.4527,125.848,28,1,0,2,21,166,0,0,0,0,20.31,177.0945566,3.511128154,342.3419784
A-543,"(1S,2S,4S)-1,7,7-trimethylbicyclo[2.2.1]heptan-2-yl 2-methylprop-2-enoate","InChI=1S/C14H22O2/c1-9(2)12(15)16-11-8-10-6-7-14(11,5)13(10,3)4/h10-11H,1,6-8H2,2-5H3",IAXXETNIOYFMLW-UHFFFAOYSA-N,CC(=C)C(=O)OC1CC2CCC1(C)C2(C)C,-4.544220436,0.033587413,2,G3,222.328,3.3205,63.923,16,2,0,2,2,90,0,2,2,2,26.3,98.05730051,2.159274368,342.6445043
A-545,nonyl acetate,"InChI=1S/C11H22O2/c1-3-4-5-6-7-8-9-10-13-11(2)12/h3-10H2,1-2H3",GJQIMXVRFNLMTB-UHFFFAOYSA-N,CCCCCCCCCOC(C)=O,-4.47086065,0,1,G1,186.295,3.3001,54.626,13,2,0,2,8,78,0,0,0,0,26.3,81.6637395,2.872918759,121.2586864
A-547,"1,3-xylene; 1,4-diethylcyclohexane; 8,15-diethylhexacosane; anthracene; naphthalene; tetradecahydroanthracene; triacontane","InChI=1S/2C30H62.C14H24.C14H10.C10H8.C10H20.C8H10/c1-5-9-11-13-14-15-16-18-22-26-30(8-4)28-24-20-19-23-27-29(7-3)25-21-17-12-10-6-2;1-3-5-7-9-11-13-15-17-19-21-23-25-27-29-30-28-26-24-22-20-18-16-14-12-10-8-6-4-2;2*1-2-6-12-10-14-8-4-3-7-13(14)9-11(12)5-1;1-2-6-10-8-4-3-7-9(10)5-1;1-3-9-5-7-10(4-2)8-6-9;1-7-4-3-5-8(2)6-7/h29-30H,5-28H2,1-4H3;3-30H2,1-2H3;11-14H,1-10H2;1-10H;1-8H;9-10H,3-8H2,1-2H3;3-6H,1-2H3",DXACIACMWHJFHD-UHFFFAOYSA-N,CCCCCCCCCCCCCCCCCCCCCCCCCCCCCC.CCCCCCCCCCCC(CC)CCCCCCC(CC)CCCCCCC.CCC1CCC(CC)CC1.Cc2cccc(C)c2.C3CCC4CC5CCCCC5CC4C3.c6ccc7ccccc7c6.c8ccc9cc%10ccccc%10cc9c8,-5.405053261,0.597257171,2,G2,1590.844,40.75184,528.586,116,0,0,0,54,660,6,4,4,10,0,724.9872693,3.00E-07,2772.249808
A-550,anthracene; benzene; ethylbenzene; naphthalene; tetradecane,"InChI=1S/C14H10.C14H30.C10H8.C8H10.C6H6/c1-2-6-12-10-14-8-4-3-7-13(14)9-11(12)5-1;1-3-5-7-9-11-13-14-12-10-8-6-4-2;1-2-6-10-8-4-3-7-9(10)5-1;1-2-8-6-4-3-5-7-8;1-2-4-6-5-3-1/h1-10H;3-14H2,1-2H3;1-8H;3-7H,2H2,1H3;1-6H",PBMFOKZETGSLTK-UHFFFAOYSA-N,CCCCCCCCCCCCCC.CCc1ccccc1.c2ccccc2.c3ccc4ccccc4c3.c5ccc6cc7ccccc7cc6c5,-5.041697833,0.597257171,2,G2,689.084,16.4758,234.416,52,0,0,0,12,272,7,0,0,7,0,316.5100778,1.81E-07,1628.020828
A-551,naphthalene,InChI=1S/C10H8/c1-2-6-10-8-4-3-7-9(10)5-1/h1-8H,UFWIBTONFRDIAS-UHFFFAOYSA-N,c1ccc2ccccc2c1,-4.311225605,0.718951863,5,G4,128.174,2.8398,43.948,10,0,0,0,0,48,2,0,0,2,0,60.11306765,2.888051602,271.0151824
A-553,cyclohexyl 2-hydroxybenzoate,"InChI=1S/C13H16O3/c14-12-9-5-4-8-11(12)13(15)16-10-6-2-1-3-7-10/h4-5,8-10,14H,1-3,6-7H2",NUQDJSMHGCTKNL-UHFFFAOYSA-N,Oc1ccccc1C(=O)OC2CCCCC2,-4.554076293,0.032299623,2,G3,220.268,2.8817,60.3953,16,3,1,3,2,86,1,1,1,2,46.53,95.04946785,1.995397772,367.1953854
A-554,(4R)-1-methyl-4-(prop-1-en-2-yl)cyclohex-1-ene,"InChI=1S/C10H16/c1-8(2)10-6-4-9(3)5-7-10/h4,10H,1,5-7H2,2-3H3/t10-/m0/s1",XMGQYMWWDOXHJM-JTQLQIEISA-N,CC(=C)[C@@H]1CCC(=CC1)C,-4.346837785,0.174266418,3,G5,136.238,3.3089,45.912,10,0,0,0,1,56,0,0,1,1,0,63.63869284,2.495412227,162.8771238
A-555,hex-3-en-1-yl hex-3-enoate,"InChI=1S/C12H20O2/c1-3-5-7-9-11-14-12(13)10-8-6-4-2/h5-8H,3-4,9-11H2,1-2H3/b7-5-,8-6-",UZJQQWFHPLYECS-SFECMWDFSA-N,CC\C=C/CCOC(=O)C\C=C/CC,-4.509709484,0.066265832,5,G5,196.29,3.2422,59.055,14,2,0,2,7,80,0,0,0,0,26.3,86.64947555,3.352724161,192.4984101
A-556,"13-ethyl-3-methoxy-4,6,7,8,9,11,12,13,14,15,16,17-dodecahydro-1H-cyclopenta[a]phenanthren-17-ol (non-preferred name)","InChI=1S/C20H30O2/c1-3-20-11-10-16-15-7-5-14(22-2)12-13(15)4-6-17(16)18(20)8-9-19(20)21/h5,16-19,21H,3-4,6-12H2,1-2H3/t16-,17-,18+,19+,20+/m1/s1",DKGAZBPXLWEBPI-SLHNCBLASA-N,CC[C@]12CC[C@H]3[C@@H](CCC4=C3CC=C(C4)OC)[C@@H]1CC[C@@H]2O,-4.702513826,0,1,G1,302.458,4.5944,88.2548,22,2,1,2,2,122,0,2,4,4,29.46,134.1783995,1.61211186,517.8002858
A-557,"2,3-dihydroxypropyl laurate","InChI=1S/C15H30O4/c1-2-3-4-5-6-7-8-9-10-11-15(18)19-13-14(17)12-16/h14,16-17H,2-13H2,1H3",ARIWANIATODDMH-UHFFFAOYSA-N,CCCCCCCCCCCC(=O)OCC(O)CO,-4.660234439,0.389075625,2,G3,274.401,2.8037,75.8956,19,4,2,4,13,114,0,0,0,0,66.76,116.7119755,3.183959037,206.322255
A-558,2-benzoyl-5-methoxyphenol,"InChI=1S/C14H12O3/c1-17-11-7-8-12(13(15)9-11)14(16)10-5-3-2-4-6-10/h2-9,15H,1H3",DXGLGDHPHMLXJC-UHFFFAOYSA-N,COc1ccc(c(O)c1)C(=O)c2ccccc2,-4.580253828,0.150514998,2,G3,228.247,2.6318,64.5333,17,3,1,3,3,86,2,0,0,2,46.53,99.28768264,2.382869011,532.4185153
A-560,Vertofix,"InChI=1S/C17H26O/c1-10-6-7-15-16(4,5)14-9-17(10,15)8-13(11(14)2)12(3)18/h10,14-15H,6-9H2,1-5H3",YBUIAJZFOGJGLJ-UHFFFAOYSA-N,CC1CCC2C(C)(C)C3CC12CC(=C3C)C(C)=O,-4.613478878,0,1,G1,246.394,4.3742,74.207,18,1,0,1,1,100,0,2,3,3,17.07,111.0327505,2.14933459,442.5264452
A-563,ethyl benzoate,"InChI=1S/C9H10O2/c1-2-11-9(10)8-6-4-3-5-7-8/h3-7H,2H2,1H3",MTZQAGJQAFMTAQ-UHFFFAOYSA-N,CCOC(=O)c1ccccc1,-2.39990224,0.06465483,3,G5,150.177,1.8633,42.3985,11,2,0,2,2,58,1,0,0,1,26.3,65.80129679,2.69300795,228.5778659
A-564,3-phenylpropanoic acid,"InChI=1S/C9H10O2/c10-9(11)7-6-8-4-2-1-3-5-8/h1-5H,6-7H2,(H,10,11)",XMIIGOLPHOKFCH-UHFFFAOYSA-N,OC(=O)CCc1ccccc1,-1.405751413,0.097875706,2,G3,150.177,1.7038,42.3988,11,1,1,2,3,58,1,0,0,1,37.3,65.48198531,2.453018744,228.5778659
A-566,"(2E)-3,7-dimethylocta-2,6-dienal","InChI=1S/C10H16O/c1-9(2)5-4-6-10(3)7-8-11/h5,7-8H,4,6H2,1-3H3/b10-7+",WTEVQBCEXWBHNA-JXMROGBWSA-N,CC(C)=CCC\C(C)=C\C=O,-2.411668206,0.211683186,3,G5,152.237,2.878,48.486,11,1,0,1,4,62,0,0,0,0,17.07,68.80604609,3.62575966,171.3117986
A-568,2-hexylcyclopentanone,"InChI=1S/C11H20O/c1-2-3-4-5-7-10-8-6-9-11(10)12/h10H,2-9H2,1H3",JTHVYOIHZNYRCC-UHFFFAOYSA-N,CCCCCCC1CCCC1=O,-3.451515538,0,1,G1,168.28,3.326,51.107,12,1,0,1,5,70,0,1,1,1,17.07,75.54436312,2.022982494,139.9395388
A-569,"2,4,4,7-tetramethyloct-6-en-3-one","InChI=1S/C12H22O/c1-9(2)7-8-12(5,6)11(13)10(3)4/h7,10H,8H2,1-6H3",CTLDWNVYXLHMAS-UHFFFAOYSA-N,CC(C)C(=O)C(C)(C)CC=C(C)C,-3.489215864,0,1,G1,182.307,3.594,57.674,13,1,0,1,4,76,0,0,0,0,17.07,82.22553335,4.397313867,205.1643664
A-570,"Phenol, styrenated","InChI=1S/C10H10O/c1-3-8-5-6-10(11)9(4-2)7-8/h3-7,11H,1-2H2",GZGSEMRMKBBQGA-UHFFFAOYSA-N,Oc1ccc(C=C)cc1C=C,-3.394062684,1.385426006,2,G2,146.189,2.6782,48.2888,11,1,1,1,2,56,1,0,0,1,20.23,66.30619926,3.217835402,286.9242933
A-574,2-amino-5-chlorophenol,"InChI=1S/C6H6ClNO/c7-4-1-2-5(8)6(9)3-4/h1-3,9H,8H2",FZCQMIRJCGWWCL-UHFFFAOYSA-N,Nc1ccc(Cl)cc1O,-2.390659928,0,1,G1,143.573,1.6278,37.5292,9,2,2,3,0,48,1,0,0,1,46.25,57.8687938,3.17167803,224.2978871
A-575,4-ethoxybenzoic acid,"InChI=1S/C9H10O3/c1-2-12-8-5-3-7(4-6-8)9(10)11/h3-6H,2H2,1H3,(H,10,11)",SHSGDXCJYVZFTP-UHFFFAOYSA-N,CCOc1ccc(cc1)C(O)=O,-2.454899746,0,1,G1,166.176,1.7835,44.5703,12,2,1,3,3,64,1,0,0,1,46.53,70.59553054,2.780862289,263.6070663
A-576,lead(+2) cation dicarbonate dihydroxide,"InChI=1S/2CH2O3.2H2O.3Pb/c2*2-1(3)4;;;;;/h2*(H2,2,3,4);2*1H2;;;/q;;;;3*+2/p-6",RYZCLUQMCYZBJQ-UHFFFAOYSA-H,[OH-].[OH-].[Pb++].[Pb++].[Pb++].[O-]C([O-])=O.[O-]C([O-])=O,-5.547231918,0.05598688,2,G3,775.63,-6.39,31.9256,13,8,0,11,0,70,0,0,0,0,186.38,133.4191651,-8.00E-09,75.38992885
A-578,"2,6-dichloro-4-(trifluoromethyl)aniline","InChI=1S/C7H4Cl2F3N/c8-4-1-3(7(10,11)12)2-5(9)6(4)13/h1-2H,13H2",ITNMAZSPBLRJLU-UHFFFAOYSA-N,Nc1c(Cl)cc(cc1Cl)C(F)(F)F,-3.591642752,0,1,G1,230.016,3.5944,45.8764,13,1,1,6,0,72,1,0,0,1,26.02,82.23937459,3.292030546,311.994919
A-579,Desipramine,"InChI=1S/C18H22N2/c1-19-13-6-14-20-17-9-4-2-7-15(17)11-12-16-8-3-5-10-18(16)20/h2-5,7-10,19H,6,11-14H2,1H3",HCYAFALTSJYZDH-UHFFFAOYSA-N,CNCCCN1c2ccccc2CCc3ccccc13,-3.657617041,0.013808521,2,G3,266.388,3.5328,85.8417,20,2,1,2,4,104,2,0,1,3,15.27,120.9820147,1.996171266,529.6358349
A-581,"1-(4-chlorophenoxy)-1-(1H-imidazol-1-yl)-3,3-dimethylbutan-2-one","InChI=1S/C15H17ClN2O2/c1-15(2,3)13(19)14(18-9-8-17-10-18)20-12-6-4-11(16)5-7-12/h4-10,14H,1-3H3",OWEGWHBOCFMBLP-UHFFFAOYSA-N,CC(C)(C)C(=O)C(Oc1ccc(Cl)cc1)n2ccnc2,-3.703092646,0.511453677,2,G2,292.766,3.7293,77.806,20,4,0,5,4,106,2,0,0,2,44.12,122.8952635,2.28122355,570.9210237
A-584,"decane-1,2-diol","InChI=1S/C10H22O2/c1-2-3-4-5-6-7-8-10(12)9-11/h10-12H,2-9H2,1H3",YSRSBDQINUMTIF-UHFFFAOYSA-N,CCCCCCCCC(O)CO,-2.478578955,0,1,G1,174.284,2.0902,51.0856,12,2,2,2,8,74,0,0,0,0,40.46,75.61219756,2.901852426,83.90776467
A-586,2-(butan-2-yl)cyclohexan-1-one,"InChI=1S/C10H18O/c1-3-8(2)9-6-4-5-7-10(9)11/h8-9H,3-7H2,1-2H3",RQXTZKGDMNIWJF-UHFFFAOYSA-N,CCC(C)C1CCCCC1=O,-2.427057806,0,1,G1,154.253,2.7918,46.42,11,1,0,1,2,64,0,1,1,1,17.07,69.179421,2.470035704,139.8082035
A-587,4-formyl-2-methoxyphenyl 2-methylpropanoate,"InChI=1S/C12H14O4/c1-8(2)12(14)16-10-5-4-9(7-13)6-11(10)15-3/h4-8H,1-3H3",BGKAKRUFBSTALK-UHFFFAOYSA-N,COc1cc(C=O)ccc1OC(=O)C(C)C,-2.588667606,0,1,G1,222.24,2.0691,58.8545,16,4,0,4,4,86,1,0,0,1,52.6,94.17119046,2.954802732,396.0052757
A-588,toluene,"InChI=1S/C7H8/c1-7-5-3-2-4-6-7/h2-6H,1H3",YXFVVABEGXRONW-UHFFFAOYSA-N,Cc1ccccc1,-2.206298299,0.023134699,3,G5,92.141,1.99502,31.179,7,0,0,0,0,36,1,0,0,1,0,43.79634523,3.02146531,129.9656602
A-594,strontium 4-[(4-chloro-5-methyl-2-sulphonatophenyl)azo]-3-hydroxy-2-naphthoate (1:1),"InChI=1S/C18H13ClN2O6S.Sr/c1-9-6-14(15(8-13(9)19)28(25,26)27)20-21-16-11-5-3-2-4-10(11)7-12(17(16)22)18(23)24;/h2-8,20H,1H3,(H,23,24)(H,25,26,27);/q;+2/p-2/b21-16+;",ZZUKBDPLHIIUFR-JEBHESKQSA-L,[Sr++].Cc1cc(N\N=C/2C(=O)C(=Cc3ccccc23)C([O-])=O)c(cc1Cl)[S]([O-])(=O)=O,-3.944100371,1.792165612,2,G2,506.434,0.70392,104.4989,29,8,1,11,4,144,2,0,1,3,138.79,207.8352125,3.00E-06,1190.832657
A-596,"17-hydroxyandrosta-1,4-dien-3-one","InChI=1S/C19H26O2/c1-18-9-7-13(20)11-12(18)3-4-14-15-5-6-17(21)19(15,2)10-8-16(14)18/h7,9,11,14-17,21H,3-6,8,10H2,1-2H3/t14-,15-,16-,17-,18-,19-/m0/s1",RSIHSRDYCUFFLA-DYKIIFRCSA-N,C[C@]12CC[C@H]3[C@@H](CCC4=CC(=O)C=C[C@]34C)[C@@H]1CC[C@@H]2O,-3.700359651,0,1,G1,286.415,3.6552,82.6228,21,2,1,2,0,114,0,3,4,4,37.3,126.8614343,1.704682463,545.7696078
A-597,"3-(4-ethylphenyl)-2,2-dimethylpropanenitrile","InChI=1S/C13H17N/c1-4-11-5-7-12(8-6-11)9-13(2,3)10-14/h5-8H,4,9H2,1-3H3",NWMCCMGWYCKNJR-UHFFFAOYSA-N,CCc1ccc(CC(C)(C)C#N)cc1,-3.351339264,0,1,G1,187.286,3.34128,58.918,14,1,0,1,3,74,1,0,0,1,23.79,86.3785776,2.748630016,327.24835
A-599,"1,6-dichlorohexane",InChI=1S/C6H12Cl2/c7-5-3-1-2-4-6-8/h1-6H2,OVISMSJCKCDOPU-UHFFFAOYSA-N,ClCCCCCCCl,-3.43464733,0,1,G1,155.068,3.0244,39.908,8,0,0,2,5,50,0,0,0,0,0,61.17049405,2.530060457,31.509775
A-600,Tricyclodecenyl propionate,"InChI=1S/C13H18O2/c1-2-12(14)15-11-6-5-10-8-3-4-9(7-8)13(10)11/h5-6,8-11,13H,2-4,7H2,1H3",BALAUIYKESNHDW-UHFFFAOYSA-N,CCC(=O)OC1C=CC2C3CCC(C3)C12,-3.558592794,0,1,G1,206.285,2.5403,57.122,15,2,0,2,2,82,0,2,3,3,26.3,90.68652724,1.724503028,307.6578138
A-601,ethoxybenzene,"InChI=1S/C8H10O/c1-2-9-8-6-4-3-5-7-8/h3-7H,2H2,1H3",DLRJIFUOBPOJNS-UHFFFAOYSA-N,CCOc1ccccc1,-2.331841643,0.57398886,2,G2,122.167,2.0853,37.611,9,1,0,1,2,48,1,0,0,1,9.23,55.27483258,2.61489994,157.4784208
A-602,"(2-methyl-1-oxo-1-prop-2-enoxypropan-2-yl) 2-chloro-5-[3-methyl-2,6-dioxo-4-(trifluoromethyl)pyrimidin-1-yl]benzoate","InChI=1S/C20H18ClF3N2O6/c1-5-8-31-17(29)19(2,3)32-16(28)12-9-11(6-7-13(12)21)26-15(27)10-14(20(22,23)24)25(4)18(26)30/h5-7,9-10H,1,8H2,2-4H3",JEDYYFXHPAIBGR-UHFFFAOYSA-N,CN1C(=O)N(C(=O)C=C1C(F)(F)F)c2ccc(Cl)c(c2)C(=O)OC(C)(C)C(=O)OCC=C,-4.676528089,0,1,G1,474.819,2.873,107.9425,32,8,0,12,6,172,2,0,0,2,96.6,183.9806057,2.508444812,1197.287083
A-604,iron(3+) ion tris(4-methylbenzene-1-sulfonate),"InChI=1S/3C7H8O3S.Fe/c3*1-6-2-4-7(5-3-6)11(8,9)10;/h3*2-5H,1H3,(H,8,9,10);/q;;;+3/p-3",FYMCOOOLDFPFPN-UHFFFAOYSA-K,[Fe+3].Cc1ccc(cc1)[S]([O-])(=O)=O.Cc2ccc(cc2)[S]([O-])(=O)=O.Cc3ccc(cc3)[S]([O-])(=O)=O,-0.008033112,0,1,G1,569.436,2.69486,117.4266,34,9,0,13,3,185,3,0,0,3,171.6,210.1336085,4.73E-07,1190.610941
A-606,prop-2-en-1-yl 2-phenoxyacetate,"InChI=1S/C11H12O3/c1-2-8-13-11(12)9-14-10-6-4-3-5-7-10/h2-7H,1,8-9H2",VUFZVGQUAVDKMC-UHFFFAOYSA-N,C=CCOC(=O)COc1ccccc1,-2.536373209,0,1,G1,192.214,1.7946,53.093,14,3,0,3,5,74,1,0,0,1,35.53,82.95512322,2.268439797,292.6607706
A-607,ammonium iodide,InChI=1S/HI.H3N/h1H;1H3,UKFWSNCTAHXBQN-UHFFFAOYSA-N,[NH4+].[I-],1.08677602,0,1,G1,144.943,-2.6198,5.9848,2,0,1,2,0,16,0,0,0,0,36.5,30.64802054,0,2
A-610,hexanedioic acid - piperazine (1:1),"InChI=1S/C6H10O4.C4H10N2/c7-5(8)3-1-2-4-6(9)10;1-2-6-4-3-5-1/h1-4H2,(H,7,8)(H,9,10);5-6H,1-4H2",BVEGEKOBSPXUJS-UHFFFAOYSA-N,OC(=O)CCCCC(O)=O.C1CNCCN1,-0.623286686,0.038738164,2,G3,232.28,-0.1048,59.479,16,4,4,6,5,94,0,1,1,1,98.66,95.03496613,3.15E-07,177.4859353
A-614,"4-amino-2,5-dimethoxy-N-methylbenzenesulfonamide","InChI=1S/C9H14N2O4S/c1-11-16(12,13)9-5-7(14-2)6(10)4-8(9)15-3/h4-5,11H,10H2,1-3H3",CISVVDNATRQDNU-UHFFFAOYSA-N,CN[S](=O)(=O)c1cc(OC)c(N)cc1OC,-3.651080563,0,1,G1,246.288,0.1941,60.2039,16,5,2,7,4,90,1,0,0,1,90.65,94.40384869,3.483191802,484.527507
A-616,phosphoric acid; urea,"InChI=1S/CH4N2O.H3O4P/c2-1(3)4;1-5(2,3)4/h(H4,2,3,4);(H3,1,2,3,4)",DZHMRSPXDUUJER-UHFFFAOYSA-N,NC(N)=O.O[P](O)(O)=O,0.537602002,0,1,G1,158.05,-1.9048,28.0337,9,2,5,8,0,56,0,0,0,0,146.87,50.51869761,0,114.655022
A-617,urea,"InChI=1S/CH4N2O/c2-1(3)4/h(H4,2,3,4)",XSQUKJJJFZCRTK-UHFFFAOYSA-N,NC(N)=O,0.957840099,0.029394044,2,G3,60.056,-0.9762,13.7708,4,1,2,3,0,24,0,0,0,0,69.11,23.58055452,2.803039488,29.01955001
A-618,1H-benzimidazol-2-ol,"InChI=1S/C7H6N2O/c10-7-8-5-3-1-2-4-6(5)9-7/h1-4H,(H2,8,9,10)",SILNNFMWIMZVEQ-UHFFFAOYSA-N,O=C1Nc2ccccc2N1,-2.392751997,0,1,G1,134.138,0.8562,38.9194,10,1,2,3,0,50,2,0,0,2,48.65,56.70339815,3.007619547,362.8983534