ID,Name,InChI,InChIKey,SMILES,Solubility,SD,Ocurrences,Group,MolWt,MolLogP,MolMR,HeavyAtomCount,NumHAcceptors,NumHDonors,NumHeteroatoms,NumRotatableBonds,NumValenceElectrons,NumAromaticRings,NumSaturatedRings,NumAliphaticRings,RingCount,TPSA,LabuteASA,BalabanJ,BertzCT
A-5026,"3-ethyl 5-methyl 4-(2-chlorophenyl)-1,4-dihydro-2-[2-(1,3-dihydro-1,3-dioxo-(2H)isoindol-2-yl)-ethoxymethyl]-6-methyl-3,5-pyridinedicarboxylate","InChI=1S/C28H27ClN2O7/c1-4-38-28(35)24-21(15-37-14-13-31-25(32)17-9-5-6-10-18(17)26(31)33)30-16(2)22(27(34)36-3)23(24)19-11-7-8-12-20(19)29/h5-12,23,30H,4,13-15H2,1-3H3",AHHPZGUFLGCZCF-UHFFFAOYSA-N,CCOC(=O)C1=C(COCCN2C(=O)c3ccccc3C2=O)NC(=C(C1c4ccccc4Cl)C(=O)OC)C,-4.501126952,0,1,G1,538.984,3.6038,138.3317,38,8,1,10,9,198,2,0,2,4,111.24,224.536389,1.60604555,1329.475767
A-5027,prop-2-en-1-yl 3-cyclohexylpropanoate,"InChI=1S/C12H20O2/c1-2-10-14-12(13)9-8-11-6-4-3-5-7-11/h2,11H,1,3-10H2",TWXUTZNBHUWMKJ-UHFFFAOYSA-N,C=CCOC(=O)CCC1CCCCC1,-4.062449254,0,1,G1,196.29,3.0761,56.965,14,2,0,2,5,80,0,1,1,1,26.3,86.33324743,2.05717399,180.7607507
A-5028,"methyl 2-[(4-ethoxy-6-methylamino-1,3,5-triazin-2-yl)carbamoylsulfamoyl]benzoate","InChI=1S/C15H18N6O6S/c1-4-27-15-19-12(16-2)17-13(20-15)18-14(23)21-28(24,25)10-8-6-5-7-9(10)11(22)26-3/h5-8H,4H2,1-3H3,(H3,16,17,18,19,20,21,23)",ZINJLDJMHCUBIP-UHFFFAOYSA-N,CCOc1nc(NC)nc(NC(=O)N[S](=O)(=O)c2ccccc2C(=O)OC)n1,-4.387910769,1.388382202,8,G4,410.412,0.609,97.6644,28,10,3,13,7,150,2,0,0,2,161.5,160.2975911,2.23518889,980.736675
A-5029,calcium carbonate,"InChI=1S/CH2O3.Ca/c2-1(3)4;/h(H2,2,3,4);/q;+2/p-2",VTYYLEPIZMXCLO-UHFFFAOYSA-L,[Ca++].[O-]C([O-])=O,-3.780265245,0,1,G1,100.086,-2.8278,11.15,5,3,0,4,0,24,0,0,0,0,63.19,58.60500863,0,29.87430298
A-5032,4-[(4-amino-3-methylphenyl)methyl]-2-methylaniline,"InChI=1S/C15H18N2/c1-10-7-12(3-5-14(10)16)9-13-4-6-15(17)11(2)8-13/h3-8H,9,16-17H2,1-2H3",WECDUOXQLAIPQW-UHFFFAOYSA-N,Cc1cc(Cc2ccc(N)c(C)c2)ccc1N,-4.150608709,0,1,G1,226.323,3.05864,73.9888,17,2,2,2,2,88,2,0,0,2,52.04,102.2631051,2.249182293,495.1132378
A-5033,tributyl-2-thiourea,"InChI=1S/C13H28N2S/c1-4-7-10-14-13(16)15(11-8-5-2)12-9-6-3/h4-12H2,1-3H3,(H,14,16)",UDYXMTORTDACTG-UHFFFAOYSA-N,CCCCNC(=S)N(CCCC)CCCC,-4.184066506,0,1,G1,244.448,3.5632,76.8977,16,1,1,3,9,96,0,0,0,0,15.27,106.7870325,3.883696474,163.3155292
A-5034,bis(2-ethylhexyl)amine,"InChI=1S/C16H35N/c1-5-9-11-15(7-3)13-17-14-16(8-4)12-10-6-2/h15-17H,5-14H2,1-4H3",SAIKULLUBZKPDA-UHFFFAOYSA-N,CCCCC(CC)CNCC(CC)CCCC,-4.236722556,0.253542239,2,G3,241.463,5.0088,79.4817,17,1,1,1,12,104,0,0,0,0,12.03,109.7632449,3.614683576,128.4606049
A-5035,4-[(4-amino-3-chlorophenyl)methyl]-2-chloroaniline,"InChI=1S/C13H12Cl2N2/c14-10-6-8(1-3-12(10)16)5-9-2-4-13(17)11(15)7-9/h1-4,6-7H,5,16-17H2",IBOFVQJTBBUKMU-UHFFFAOYSA-N,Nc1ccc(Cc2ccc(N)c(Cl)c2)cc1Cl,-4.286890723,0,1,G1,267.159,3.7486,74.5348,17,2,2,4,2,88,2,0,0,2,52.04,110.1397533,2.249182293,503.6108804
A-5036,"(4E)-3,3-dimethyl-5-(2,2,3-trimethylcyclopent-3-en-1-yl)pent-4-en-2-ol","InChI=1S/C15H26O/c1-11-7-8-13(15(11,5)6)9-10-14(3,4)12(2)16/h7,9-10,12-13,16H,8H2,1-6H3/b10-9+",QZFSNJAQFWEXEA-MDZDMXLPSA-N,CC(O)C(C)(C)\C=C\C1CC=C(C)C1(C)C,-4.216746334,1.509872029,2,G2,222.372,3.942,70.2468,16,1,1,1,3,92,0,0,1,1,20.23,100.2576372,2.74407375,305.3966411
A-5040,"bis(2,4,4-trimethylpentyl)phosphinic acid","InChI=1S/C16H35O2P/c1-13(9-15(3,4)5)11-19(17,18)12-14(2)10-16(6,7)8/h13-14H,9-12H2,1-8H3,(H,17,18)",QUXFOKCUIZCKGS-UHFFFAOYSA-N,CC(CC(C)(C)C)C[P](O)(=O)CC(C)CC(C)(C)C,-4.366128471,0,1,G1,290.428,5.4014,86.0313,19,1,1,3,6,116,0,0,0,0,37.3,120.3838867,4.359263597,281.6910727
A-5041,3-(4-fluorophenyl)-1-(4-sulfamoylphenyl)thiourea,"InChI=1S/C13H12FN3O2S2/c14-9-1-3-10(4-2-9)16-13(20)17-11-5-7-12(8-6-11)21(15,18)19/h1-8H,(H2,15,18,19)(H2,16,17,20)",VUDOFEJVAFMLEC-UHFFFAOYSA-N,N[S](=O)(=O)c1ccc(NC(=S)Nc2ccc(F)cc2)cc1,-2.989959968,0,1,G1,325.39,2.282,84.0586,21,3,3,8,3,110,2,0,0,2,84.22,126.578146,2.009916126,743.9907697
A-5043,"ethyl 1-(4-methoxyphenyl)-7-oxo-6-[4-(2-oxopiperidin-1-yl)phenyl]-1H,4H,5H,6H,7H-pyrazolo[3,4-c]pyridine-3-carboxylate","InChI=1S/C27H28N4O5/c1-3-36-27(34)24-22-15-17-30(19-9-7-18(8-10-19)29-16-5-4-6-23(29)32)26(33)25(22)31(28-24)20-11-13-21(35-2)14-12-20/h7-14H,3-6,15-17H2,1-2H3",PULNLYVCJSOXKS-UHFFFAOYSA-N,CCOC(=O)c1nn(c2ccc(OC)cc2)c3C(=O)N(CCc13)c4ccc(cc4)N5CCCCC5=O,-4.628205844,0,1,G1,488.544,3.7774,134.099,36,7,0,9,6,186,3,1,2,5,93.97,208.7517922,1.498472017,1296.948251
A-5045,"7-chloro-5-(2-chlorophenyl)-2-oxo-2,3-dihydro-1H-1,4-benzodiazepin-4-ium-4-olate","InChI=1S/C15H10Cl2N2O2/c16-9-5-6-13-11(7-9)15(19(21)8-14(20)18-13)10-3-1-2-4-12(10)17/h1-7,21H,8H2",HIJLVSVTJNDDHT-UHFFFAOYSA-N,ON1CC(=O)N=C2C=CC(=CC2=C1c3ccccc3Cl)Cl,-4.465332821,0,1,G1,321.163,2.0009,79.6945,21,3,1,6,1,106,2,0,1,3,52.9,130.0593724,2.463337202,848.9923893
A-5048,hexane,"InChI=1S/C6H14/c1-3-5-6-4-2/h3-6H2,1-2H3",VLKZOEOYAKHREP-UHFFFAOYSA-N,CCCCCC,-3.944170335,0.052586226,3,G5,86.178,2.5866,29.816,6,0,0,0,3,38,0,0,0,0,0,40.5639616,2.339092315,12
A-5049,"N',N''''-hexane-1,6-diylbis(1-cyanoguanidine)","InChI=1S/C10H18N8/c11-7-17-9(13)15-5-3-1-2-4-6-16-10(14)18-8-12/h1-6H2,(H3,13,15,17)(H3,14,16,18)",YXZZOMVBHPCKMM-UHFFFAOYSA-N,NC(NC#N)=NCCCCCCN=C(N)NC#N,-4.434690373,0.136795874,2,G3,250.31,-0.68244,68.9442,18,4,4,8,7,98,0,0,0,0,148.4,106.3790402,3.426147435,323.0544192
A-5050,"1,5-dimethyl-1-vinylhex-4-en-1-yl propionate","InChI=1S/C13H22O2/c1-6-12(14)15-13(5,7-2)10-8-9-11(3)4/h7,9H,2,6,8,10H2,1,3-5H3",WAQIIHCCEMGYKP-UHFFFAOYSA-N,CCC(=O)OC(C)(CCC=C(C)C)C=C,-4.382357893,0,1,G1,210.317,3.6307,63.65,15,2,0,2,6,86,0,0,0,0,26.3,93.01441767,4.247006493,249.2615677
A-5051,trisodium; chromium(+3) cation; 4-(3-methyl-5-oxido-1-phenylpyrazol-4-yl)diazenyl-3-oxidonaphthalene-1-sulfonate,"InChI=1S/2C20H16N4O5S.Cr.3Na/c2*1-12-18(20(26)24(23-12)13-7-3-2-4-8-13)21-22-19-15-10-6-5-9-14(15)17(11-16(19)25)30(27,28)29;;;;/h2*2-11,25-26H,1H3,(H,27,28,29);;;;/q;;+3;3*+1/p-6",OTFBCUKLFXRMQQ-UHFFFAOYSA-H,[Na+].[Na+].[Na+].[Cr+3].Cc1nn(c([O-])c1N=Nc2c([O-])cc(c3ccccc23)[S]([O-])(=O)=O)c4ccccc4.Cc5nn(c([O-])c5N=Nc6c([O-])cc(c7ccccc67)[S]([O-])(=O)=O)c8ccccc8,-1.212102898,0,1,G1,963.794,-3.38926,206.5604,64,18,0,24,8,307,8,0,0,8,291.72,442.4718601,3.20E-07,3033.815299
A-5053,docosyltrimethylazanium methyl sulfate,"InChI=1S/C25H54N.CH4O4S/c1-5-6-7-8-9-10-11-12-13-14-15-16-17-18-19-20-21-22-23-24-25-26(2,3)4;1-5-6(2,3)4/h5-25H2,1-4H3;1H3,(H,2,3,4)/q+1;/p-1",QIVLQXGSQSFTIF-UHFFFAOYSA-M,CCCCCCCCCCCCCCCCCCCCCC[N+](C)(C)C.CO[S]([O-])(=O)=O,-4.835973065,0,1,G1,479.812,7.6075,137.6196,32,4,0,6,22,196,0,0,0,0,66.43,201.7896253,0,460.9375612
A-5054,10-Methoxyiminostilbene,"InChI=1S/C15H13NO/c1-17-15-10-11-6-2-4-8-13(11)16-14-9-5-3-7-12(14)15/h2-10,16H,1H3",ZKHZWXLOSIGIGZ-UHFFFAOYSA-N,COC1=Cc2ccccc2Nc3ccccc13,-4.514419394,0,1,G1,223.275,3.8881,71.0467,17,2,1,2,1,84,2,0,1,3,21.26,100.5512969,2.244315825,586.9806206
A-5057,"3,7,11,15-tetramethylhexadec-1-en-3-ol","InChI=1S/C20H40O/c1-7-20(6,21)16-10-15-19(5)14-9-13-18(4)12-8-11-17(2)3/h7,17-19,21H,1,8-16H2,2-6H3",KEVYVLWNCKMXJX-UHFFFAOYSA-N,CC(C)CCCC(C)CCCC(C)CCCC(C)(O)C=C,-4.708653825,0,1,G1,296.539,6.3625,95.5398,21,1,1,1,13,126,0,0,0,0,20.23,133.7777819,3.560874648,254.5640291
A-5059,"[4-[(4-diethylaminophenyl)-phenylmethylidene]-1-cyclohexa-2,5-dienylidene]-diethylazanium; hydrogen sulfate","InChI=1S/C27H33N2.H2O4S/c1-5-28(6-2)25-18-14-23(15-19-25)27(22-12-10-9-11-13-22)24-16-20-26(21-17-24)29(7-3)8-4;1-5(2,3)4/h9-21H,5-8H2,1-4H3;(H2,1,2,3,4)/q+1;/p-1",NNBFNNNWANBMTI-UHFFFAOYSA-M,CCN(CC)c1ccc(cc1)[C+](c2ccccc2)c3ccc(cc3)N(CC)CC.O[S]([O-])(=O)=O,-2.057288344,0,1,G1,482.646,5.40279,139.323,34,5,1,7,9,182,3,0,0,3,83.91,203.9874427,7.39E-07,1014.238709
A-5060,"13-ethyl-3-methoxy-6,7,11,12,13,14,15,16-octahydro-17H-cyclopenta[a]phenanthren-17-one (non-preferred name)","InChI=1S/C20H24O2/c1-3-20-11-10-16-15-7-5-14(22-2)12-13(15)4-6-17(16)18(20)8-9-19(20)21/h5,7,12,18H,3-4,6,8-11H2,1-2H3/t18-,20-/m0/s1",PFKPABPFEUSONI-ICSRJNTNSA-N,CC[C@]12CCC3=C(CCc4cc(OC)ccc34)[C@@H]1CCC2=O,-4.772922847,0,1,G1,296.41,4.5643,87.924,22,2,0,2,2,116,1,1,3,4,26.3,132.1085636,1.805010774,670.2848593
A-5061,"3-methoxyestra-2,5(10)-dien-17-ol","InChI=1S/C19H28O2/c1-19-10-9-15-14-6-4-13(21-2)11-12(14)3-5-16(15)17(19)7-8-18(19)20/h4,15-18,20H,3,5-11H2,1-2H3/t15-,16-,17+,18+,19+/m1/s1",XFFZLECPCHQJIR-GFEQUFNTSA-N,COC1=CCC2=C(CC[C@@H]3[C@@H]2CC[C@]4(C)[C@@H](O)CC[C@@H]34)C1,-4.761071931,0,1,G1,288.431,4.2043,83.6378,21,2,1,2,1,116,0,2,4,4,29.46,127.8134574,1.606128366,503.6957431
A-5063,"2-ethyl-2-[2-(6-methoxy-3,4-dihydronaphthalen-1(2H)-ylidene)ethyl]cyclopentane-1,3-dione","InChI=1S/C20H24O3/c1-3-20(18(21)9-10-19(20)22)12-11-14-5-4-6-15-13-16(23-2)7-8-17(14)15/h7-8,11,13H,3-6,9-10,12H2,1-2H3/b14-11-",OMXFYKCGCDGYNC-KAMYIIQDSA-N,CCC1(C/C=C2/CCCc3cc(OC)ccc23)C(=O)CCC1=O,-4.838817119,0,1,G1,312.409,4.1334,90.498,23,3,0,3,4,122,1,1,2,3,43.37,137.2759168,1.898753624,653.4644012
A-5064,manganese(2+) ion carbonate,"InChI=1S/CH2O3.Mn/c2-1(3)4;/h(H2,2,3,4);/q;+2/p-2",XMWCXZJXESXBBY-UHFFFAOYSA-L,[Mn++].[O-]C([O-])=O,-4.500587238,0,1,G1,114.946,-2.4495,5.396,5,3,0,4,0,29,0,0,0,0,63.19,39.0848609,0,29.87430298
A-5065,"7-chloro-5-(2-chlorophenyl)-2-oxo-2,3-dihydro-1H-1,4-benzodiazepin-3-yl acetate","InChI=1S/C17H12Cl2N2O3/c1-9(22)24-17-16(23)20-14-7-6-10(18)8-12(14)15(21-17)11-4-2-3-5-13(11)19/h2-8,17H,1H3,(H,20,23)",CYDZMDOLVUBPNL-UHFFFAOYSA-N,CC(=O)OC1N=C(c2ccccc2Cl)c3cc(Cl)ccc3NC1=O,-5.028666923,0,1,G1,363.2,3.6721,92.7267,24,4,1,7,2,122,2,0,1,3,67.76,147.7956833,2.227574568,864.6642016
A-5067,"3-methoxyestra-2,5(10)-dien-17-one","InChI=1S/C19H26O2/c1-19-10-9-15-14-6-4-13(21-2)11-12(14)3-5-16(15)17(19)7-8-18(19)20/h4,15-17H,3,5-11H2,1-2H3",NSUVCVKCWGOYPV-UHFFFAOYSA-N,COC1=CCC2=C(CCC3C2CCC4(C)C3CCC4=O)C1,-4.979874504,0,1,G1,286.415,4.4125,82.638,21,2,0,2,1,114,0,2,4,4,26.3,127.1807457,1.62021783,541.7696078
A-5069,N-phenylnaphthalen-1-amine,"InChI=1S/C16H13N/c1-2-9-14(10-3-1)17-16-12-6-8-13-7-4-5-11-15(13)16/h1-12,17H",XQVWYOYUZDUNRW-UHFFFAOYSA-N,N(c1ccccc1)c2cccc3ccccc23,-4.863891631,0.650495816,2,G2,219.287,4.5834,73.6727,17,1,1,1,2,82,3,0,0,3,12.03,100.720024,2.063095014,623.8561252
A-5070,2-(benzoyloxy)ethyl benzoate,"InChI=1S/C16H14O4/c17-15(13-7-3-1-4-8-13)19-11-12-20-16(18)14-9-5-2-6-10-14/h1-10H,11-12H2",XFDQLDNQZFOAFK-UHFFFAOYSA-N,O=C(OCCOC(=O)c1ccccc1)c2ccccc2,-5.070092502,0,1,G1,270.284,2.7004,73.449,20,4,0,4,5,102,2,0,0,2,52.6,116.4984004,1.719565134,510.0454481
A-5071,oxonickel,InChI=1S/Ni.O,GNRSAWUEBMWBQH-UHFFFAOYSA-N,O=[Ni],-4.519165649,0,1,G1,74.692,-0.1213,0.6865,2,1,0,2,0,16,0,0,0,0,17.07,20.21721624,2,2
A-5072,"2,4a,5,8a-tetramethyl-1,2,3,4,4a,7,8,8a-octahydronaphthalen-1-yl formate","InChI=1S/C15H24O2/c1-11-7-9-14(3)12(2)6-5-8-15(14,4)13(11)17-10-16/h6,10-11,13H,5,7-9H2,1-4H3",DAWDTDPJINNEJM-UHFFFAOYSA-N,CC1CCC2(C)C(=CCCC2(C)C1OC=O)C,-5.031142113,0,1,G1,236.355,3.7106,68.54,17,2,0,2,2,96,0,1,2,2,26.3,104.4222426,2.41825632,346.8309826
A-5073,"methyl 3-(3,5-di-tert-butyl-4-hydroxyphenyl)propanoate","InChI=1S/C18H28O3/c1-17(2,3)13-10-12(8-9-15(19)21-7)11-14(16(13)20)18(4,5)6/h10-11,20H,8-9H2,1-7H3",PXMJCECEFTYEKE-UHFFFAOYSA-N,COC(=O)CCc1cc(c(O)c(c1)C(C)(C)C)C(C)(C)C,-5.123582907,0,1,G1,292.419,4.0928,85.8438,21,3,1,3,3,118,1,0,0,1,46.53,127.8800096,3.30574374,481.2405808
A-5074,"3,9-bis(cyclohex-3-en-1-yl)-2,4,8,10-tetraoxaspiro[5.5]undecane","InChI=1S/C19H28O4/c1-3-7-15(8-4-1)17-20-11-19(12-21-17)13-22-18(23-14-19)16-9-5-2-6-10-16/h1-3,5,15-18H,4,6-14H2",WKTJXDHLMJKSGI-UHFFFAOYSA-N,C1CC(CC=C1)C2OCC3(CO2)COC(OC3)C4CCC=CC4,-5.239735444,0,1,G1,320.429,3.4312,86.779,23,4,0,4,2,128,0,2,4,4,36.92,138.3598593,1.267141639,396.7761907
A-5076,"4-(3,4,5,6-tetramethyloctan-2-yl)phenol","InChI=1S/C16H26O/c1-5-12(2)14(4)13(3)6-7-15-8-10-16(17)11-9-15/h8-14,17H,5-7H2,1-4H3",AOOKHLGAVNECET-UHFFFAOYSA-N,CCC(C)C(C)C(C)CCc1ccc(O)cc1,-5.182405388,0.056754637,2,G3,234.383,4.6431,74.2108,17,1,1,1,6,96,1,0,0,1,20.23,105.875058,2.420000187,314.801993
A-5077,"13-ethyl-3-methoxy-1,4,6,7,8,9,11,12,13,14,15,16-dodecahydro-17H-cyclopenta[a]phenanthren-17-one (non-preferred name)","InChI=1S/C20H28O2/c1-3-20-11-10-16-15-7-5-14(22-2)12-13(15)4-6-17(16)18(20)8-9-19(20)21/h5,16-18H,3-4,6-12H2,1-2H3/t16-,17-,18+,20+/m1/s1",PQMRKLSVUBRLLQ-XSYGEPLQSA-N,CC[C@]12CC[C@H]3[C@@H](CCC4=C3CC=C(C4)OC)[C@@H]1CCC2=O,-5.363817292,0.341289794,2,G3,300.442,4.8026,87.255,22,2,0,2,2,120,0,2,4,4,26.3,133.5456879,1.625420729,556.0545527
A-5078,"1,2,4-tris(8-methylnonyl) benzene-1,2,4-tricarboxylate","InChI=1S/C39H66O6/c1-31(2)22-16-10-7-13-19-27-43-37(40)34-25-26-35(38(41)44-28-20-14-8-11-17-23-32(3)4)36(30-34)39(42)45-29-21-15-9-12-18-24-33(5)6/h25-26,30-33H,7-24,27-29H2,1-6H3",FJFYFBRNDHRTHL-UHFFFAOYSA-N,CC(C)CCCCCCCOC(=O)c1ccc(C(=O)OCCCCCCCC(C)C)c(c1)C(=O)OCCCCCCCC(C)C,-5.706573948,0,1,G1,630.951,11.1468,184.9095,45,6,0,6,27,258,1,0,0,1,78.9,275.2996949,2.663112538,935.4589706
A-5079,dicopper(2+) ion chloride trihydroxide,InChI=1S/ClH.2Cu.3H2O/h1H;;;3*1H2/q;2*+2;;;/p-4,SKQUUKNCBWILCD-UHFFFAOYSA-J,[OH-].[OH-].[OH-].[Cl-].[Cu++].[Cu++],-5.253985152,2.414297884,6,G4,213.566,-3.5314,5.8074,6,3,0,6,0,50,0,0,0,0,90,63.15507184,0,8.754887502
A-5081,zinc bis(dimethyldithiocarbamate),"InChI=1S/2C3H7NS2.Zn/c2*1-4(2)3(5)6;/h2*1-2H3,(H,5,6);/q;;+2/p-2",DUBNHZYBDBBJHD-UHFFFAOYSA-L,[Zn++].CN(C)C([S-])=S.CN(C)C([S-])=S,-5.498714031,0,1,G1,305.834,0.7571,67.3,13,4,0,7,0,72,0,0,0,0,6.48,115.000482,-1.43E-07,142.7132414
A-5082,"6,10,14-trimethylpentadecan-2-one","InChI=1S/C18H36O/c1-15(2)9-6-10-16(3)11-7-12-17(4)13-8-14-18(5)19/h15-17H,6-14H2,1-5H3",WHWDWIHXSPCOKZ-UHFFFAOYSA-N,CC(C)CCCC(C)CCCC(C)CCCC(C)=O,-5.474677518,0,1,G1,268.485,6.0145,85.4,19,1,0,1,12,114,0,0,0,0,17.07,121.1047891,3.420967531,219.7301728
A-5083,oxomanganese,InChI=1S/Mn.O,VASIZKWUTCETSD-UHFFFAOYSA-N,O=[Mn],-4.921453892,0,1,G1,70.937,-0.1213,0.6865,2,1,0,2,0,13,0,0,0,0,17.07,20.67942236,2,2
A-5084,"6-O-acetyl-1,3,4-tri-O-isobutyryl-beta-D-fructofuranosyl 6-O-acetyl-2,3,4-tri-O-isobutyryl-alpha-D-glucopyranoside","InChI=1S/C40H62O19/c1-18(2)33(43)50-16-27-29(54-35(45)20(5)6)32(57-38(48)23(11)12)40(58-27,17-51-25(14)42)59-39-31(56-37(47)22(9)10)30(55-36(46)21(7)8)28(53-34(44)19(3)4)26(52-39)15-49-24(13)41/h18-23,26-32,39H,15-17H2,1-14H3/t26-,27-,28-,29-,30+,31-,32+,39-,40+/m1/s1",UVGUPMLLGBCFEJ-SWTLDUCYSA-N,CC(C)C(=O)OC[C@H]1O[C@@](COC(C)=O)(O[C@H]2O[C@H](COC(C)=O)[C@@H](OC(=O)C(C)C)[C@H](OC(=O)C(C)C)[C@H]2OC(=O)C(C)C)[C@@H](OC(=O)C(C)C)[C@@H]1OC(=O)C(C)C,-6.073534809,0,1,G1,846.917,2.9874,200.003,59,19,0,19,19,336,0,2,2,2,238.09,344.5015055,3.015718818,1501.38733
A-5086,manganese,InChI=1S/Mn,PWHULOQIROXLJO-UHFFFAOYSA-N,[Mn],-4.894774805,0,1,G1,54.938,-0.0025,0,1,0,0,1,0,7,0,0,0,0,0,17.96409803,0,0
A-5088,lanthanum(3+) ion trifluoride,InChI=1S/3FH.La/h3*1H;/q;;;+3/p-3,BYMUNNMMXKDFEZ-UHFFFAOYSA-K,[F-].[F-].[F-].[La+3],-5.535398328,1.258315074,4,G4,195.9,-8.988,0,4,0,0,4,0,24,0,0,0,0,0,49.65817022,0,3.245112498
A-5090,"1,3-diphenylpropane-1,3-dione","InChI=1S/C15H12O2/c16-14(12-7-3-1-4-8-12)11-15(17)13-9-5-2-6-10-13/h1-10H,11H2",NZZIMKJIVMHWJC-UHFFFAOYSA-N,O=C(CC(=O)c1ccccc1)c2ccccc2,-5.657902962,0,1,G1,224.259,3.1423,66.162,17,2,0,2,4,84,2,0,0,2,34.14,99.90636787,2.079926563,465.6327878
A-5091,4-methyl-2-[(2-nitrophenyl)diazenyl]phenol,"InChI=1S/C13H11N3O3/c1-9-6-7-13(17)11(8-9)15-14-10-4-2-3-5-12(10)16(18)19/h2-8,14H,1H3/b15-11+",GLFDXJBEJWBCQP-RVDMUPIBSA-N,CC1=CC(=N/Nc2ccccc2[N+]([O-])=O)\C(=O)C=C1,-5.747595864,0,1,G1,257.249,2.4479,72.0581,19,5,1,6,3,96,1,0,1,2,84.6,108.8307792,2.258269694,629.7755421
A-5092,oxocopper,InChI=1S/Cu.O,QPLDLSVMHZLSFG-UHFFFAOYSA-N,O=[Cu],-5.305116664,1.801922284,3,G4,79.545,-0.1213,0.6865,2,1,0,2,0,17,0,0,0,0,17.07,20.67942236,2,2
A-5093,tetrairon tris(pyrophosphate),"InChI=1S/4Fe.3H4O7P2/c;;;;3*1-8(2,3)7-9(4,5)6/h;;;;3*(H2,1,2,3)(H2,4,5,6)/q4*+3;;;/p-12",CADNYOZXMIKYPR-UHFFFAOYSA-B,[Fe+3].[Fe+3].[Fe+3].[Fe+3].[O-][P]([O-])(=O)O[P]([O-])([O-])=O.[O-][P]([O-])(=O)O[P]([O-])([O-])=O.[O-][P]([O-])(=O)O[P]([O-])([O-])=O,-6.30760853,0,1,G1,745.203,-10.0288,48.894,31,21,0,31,6,188,0,0,0,0,406.83,212.9375571,-5.24E-08,559.1162776
A-5094,dibutylbis(dodecylsulfanyl)stannane,"InChI=1S/2C12H26S.2C4H9.Sn/c2*1-2-3-4-5-6-7-8-9-10-11-12-13;2*1-3-4-2;/h2*13H,2-12H2,1H3;2*1,3-4H2,2H3;/q;;;;+2/p-2",FFGHLLOLFQHABK-UHFFFAOYSA-L,CCCCCCCCCCCCS[Sn](CCCC)(CCCC)SCCCCCCCCCCCC,-6.295424349,0,1,G1,635.741,13.337,173.788,35,2,0,3,30,212,0,0,0,0,0,233.8225766,4.104982758,351.7595057
A-5095,"1,10-didocosyl decanedioate","InChI=1S/C54H106O4/c1-3-5-7-9-11-13-15-17-19-21-23-25-27-29-31-33-35-39-43-47-51-57-53(55)49-45-41-37-38-42-46-50-54(56)58-52-48-44-40-36-34-32-30-28-26-24-22-20-18-16-14-12-10-8-6-4-2/h3-52H2,1-2H3",PRNNATBNXILRSR-UHFFFAOYSA-N,CCCCCCCCCCCCCCCCCCCCCCOC(=O)CCCCCCCCC(=O)OCCCCCCCCCCCCCCCCCCCCCC,-6.405660228,0,1,G1,819.438,18.8374,254.882,58,4,0,4,51,346,0,0,0,0,52.6,364.6313177,3.222767428,716.9989726
A-5096,"6-Methylene-3,20-dioxopregn-4-en-17-yl acetate","InChI=1S/C24H32O4/c1-14-12-18-19(22(4)9-6-17(27)13-21(14)22)7-10-23(5)20(18)8-11-24(23,15(2)25)28-16(3)26/h13,18-20H,1,6-12H2,2-5H3",YCDZXIYKJHQMIG-UHFFFAOYSA-N,CC(=O)OC1(CCC2C3CC(=C)C4=CC(=O)CCC4(C)C3CCC12C)C(C)=O,-6.107793161,0,1,G1,384.516,4.5753,106.411,28,4,0,4,2,152,0,3,4,4,60.44,167.3285005,1.745680934,807.4227893
A-5097,"N,N-dibutyl({[(dibutylcarbamothioyl)sulfanyl]methyl}sulfanyl)carbothioamide","InChI=1S/C19H38N2S4/c1-5-9-13-20(14-10-6-2)18(22)24-17-25-19(23)21(15-11-7-3)16-12-8-4/h5-17H2,1-4H3",LMODBLQHQHXPEI-UHFFFAOYSA-N,CCCCN(CCCC)C(=S)SCSC(=S)N(CCCC)CCCC,-6.240523569,0,1,G1,422.795,6.7845,128.023,25,4,0,6,14,148,0,0,0,0,6.48,175.791657,4.308655951,302.3157939
A-5100,"ethyl 1-(4-methoxyphenyl)-6-(4-nitrophenyl)-7-oxo-1H,4H,5H,6H,7H-pyrazolo[3,4-c]pyridine-3-carboxylate","InChI=1S/C22H20N4O6/c1-3-32-22(28)19-18-12-13-24(14-4-6-16(7-5-14)26(29)30)21(27)20(18)25(23-19)15-8-10-17(31-2)11-9-15/h4-11H,3,12-13H2,1-2H3",RQNAOIQEGPVYTC-UHFFFAOYSA-N,CCOC(=O)c1nn(c2ccc(OC)cc2)c3C(=O)N(CCc13)c4ccc(cc4)[N+]([O-])=O,-6.618719326,0,1,G1,436.424,3.1687,114.5494,32,8,0,10,6,164,3,0,1,4,116.8,182.6645327,1.790050166,1184.380153
A-5101,dimethyl[3-(octadecyloxy)propyl]amine,"InChI=1S/C23H49NO/c1-4-5-6-7-8-9-10-11-12-13-14-15-16-17-18-19-22-25-23-20-21-24(2)3/h4-23H2,1-3H3",BHQZSXXOSYWJSZ-UHFFFAOYSA-N,CCCCCCCCCCCCCCCCCCOCCCN(C)C,-6.85205403,0,1,G1,355.651,7.2162,113.536,25,2,0,2,21,152,0,0,0,0,12.47,159.6413564,2.961163225,230.1326798
A-5103,tantalum,InChI=1S/Ta,GUVRBAGPIYLISA-UHFFFAOYSA-N,[Ta],-6.929174184,0,1,G1,180.948,-0.0025,0,1,0,0,1,0,5,0,0,0,0,0,23.00188061,0,0
A-5104,2-(2-hydroxybenzoyl)-5-methoxyphenol,"InChI=1S/C14H12O4/c1-18-9-6-7-11(13(16)8-9)14(17)10-4-2-3-5-12(10)15/h2-8,15-16H,1H3",MEZZCSHVIGVWFI-UHFFFAOYSA-N,COc1ccc(c(O)c1)C(=O)c2ccccc2O,-7.273884108,0,1,G1,244.246,2.3374,66.1981,18,4,2,4,3,92,2,0,0,2,66.76,104.0819164,2.4379753,590.0979049
A-5106,2-oxo-N-[4-({4-[(2-oxoazepane-1-carbonyl)amino]phenyl}methyl)phenyl]azepane-1-carboxamide,"InChI=1S/C27H32N4O4/c32-24-7-3-1-5-17-30(24)26(34)28-22-13-9-20(10-14-22)19-21-11-15-23(16-12-21)29-27(35)31-18-6-2-4-8-25(31)33/h9-16H,1-8,17-19H2,(H,28,34)(H,29,35)",CFDIRYSIEKJPRZ-UHFFFAOYSA-N,O=C1CCCCCN1C(=O)Nc2ccc(Cc3ccc(NC(=O)N4CCCCCC4=O)cc3)cc2,-7.763261262,0,1,G1,476.577,5.1464,134.0894,35,4,2,8,4,184,2,2,2,4,98.82,205.2164468,1.297085747,980.0937701
A-5107,{4-[(4-methylphenyl)sulfanyl]phenyl}(phenyl)methanone,"InChI=1S/C20H16OS/c1-15-7-11-18(12-8-15)22-19-13-9-17(10-14-19)20(21)16-5-3-2-4-6-16/h2-14H,1H3",DBHQYYNDKZDVTN-UHFFFAOYSA-N,Cc1ccc(Sc2ccc(cc2)C(=O)c3ccccc3)cc1,-7.61540826,0,1,G1,304.414,5.37722,91.6185,22,2,0,2,4,108,3,0,0,3,17.07,134.5601079,1.751565867,759.0673268
A-5110,"bis(2,3,4,4-tetramethylpentan-2-yl)trisulfane","InChI=1S/C18H38S3/c1-13(15(3,4)5)17(9,10)19-21-20-18(11,12)14(2)16(6,7)8/h13-14H,1-12H3",AVVJXRYTKMKDQS-UHFFFAOYSA-N,CC(C(C)(C)C)C(C)(C)SSSC(C)(C)C(C)C(C)(C)C,-9.129966133,0,1,G1,350.703,7.9376,108.169,21,3,0,3,6,128,0,0,0,0,0,146.1125212,4.618893794,286.3355902