ID,Name,InChI,InChIKey,SMILES,Solubility,SD,Ocurrences,Group,MolWt,MolLogP,MolMR,HeavyAtomCount,NumHAcceptors,NumHDonors,NumHeteroatoms,NumRotatableBonds,NumValenceElectrons,NumAromaticRings,NumSaturatedRings,NumAliphaticRings,RingCount,TPSA,LabuteASA,BalabanJ,BertzCT
A-2367,cyclohexylbenzene,"InChI=1S/C12H16/c1-3-7-11(8-4-1)12-9-5-2-6-10-12/h1,3-4,7-8,12H,2,5-6,9-10H2",IGARGHRYKHJQSM-UHFFFAOYSA-N,C1CCC(CC1)c2ccccc2,-4.341502278,0,1,G1,160.26,3.7343,52.268,12,0,0,0,1,64,1,1,1,2,0,74.61522465,2.082510087,219.0534431
A-2371,"dipotassium disodium 2,4-diamino-5-(2-{2-sulfonato-4-[2-(sulfonatooxy)ethanesulfonyl]phenyl}diazen-1-yl)-3-(2-{4-[2-(sulfonatooxy)ethanesulfonyl]phenyl}diazen-1-yl)benzene-1-sulfonate","InChI=1S/C22H24N6O18S6.2K.2Na/c23-20-17(27-26-16-6-5-15(11-18(16)49(33,34)35)48(31,32)10-8-46-52(42,43)44)12-19(50(36,37)38)21(24)22(20)28-25-13-1-3-14(4-2-13)47(29,30)9-7-45-51(39,40)41;;;;/h1-6,11-12H,7-10,23-24H2,(H,33,34,35)(H,36,37,38)(H,39,40,41)(H,42,43,44);;;;/q;4*+1/p-4",WHNCPPZRBQNNEY-UHFFFAOYSA-J,[Na+].[Na+].[K+].[K+].Nc1c(cc(c(N)c1N=Nc2ccc(cc2)[S](=O)(=O)CCO[S]([O-])(=O)=O)[S]([O-])(=O)=O)N=Nc3ccc(cc3[S]([O-])(=O)=O)[S](=O)(=O)CCO[S]([O-])(=O)=O,-0.289144621,0,1,G1,973.004,-11.993,167.8332,56,24,2,34,16,286,3,0,0,3,417.02,449.6610647,0,2635.622676
A-2372,"sodium 5-butyl-1H-1,2,3-benzotriazol-1-ide","InChI=1S/C10H12N3.Na/c1-2-3-4-8-5-6-9-10(7-8)12-13-11-9;/h5-7H,2-4H2,1H3;/q-1;+1",GNLXYXCOPZDOPO-UHFFFAOYSA-N,[Na+].CCCCc1ccc2[n-]nnc2c1,0.404025656,0,1,G1,197.217,-1.0664,51.47,14,2,0,4,3,68,2,0,0,2,39.88,105.5715993,9.80E-07,396.9213704
A-2377,"4,7,7-trimethylbicyclo[3.1.1]hept-3-ene","InChI=1S/C10H16/c1-7-4-5-8-6-9(7)10(8,2)3/h4,8-9H,5-6H2,1-3H3",GRWFGVWFFZKLTI-UHFFFAOYSA-N,CC1=CCC2CC1C2(C)C,-3.772570424,0.698272432,10,G4,136.238,2.9987,43.752,10,0,0,0,0,56,0,1,3,3,0,63.32246472,2.29662658,186.2149912
A-2378,2-(4-{2-[4-(oxiran-2-ylmethoxy)phenyl]propan-2-yl}phenoxymethyl)oxirane,"InChI=1S/C21H24O4/c1-21(2,15-3-7-17(8-4-15)22-11-19-13-24-19)16-5-9-18(10-6-16)23-12-20-14-25-20/h3-10,19-20H,11-14H2,1-2H3",LCFVJGUPQDGYKZ-UHFFFAOYSA-N,CC(C)(c1ccc(OCC2CO2)cc1)c3ccc(OCC4CO4)cc3,-4.799620032,0.092741092,3,G5,340.419,3.5677,95.482,25,4,0,4,8,132,2,2,2,4,43.52,148.215495,1.412414128,636.1808378
A-2379,"N,N-dimethylhexadecan-1-amine","InChI=1S/C18H39N/c1-4-5-6-7-8-9-10-11-12-13-14-15-16-17-18-19(2)3/h4-18H2,1-3H3",NHLUVTZJQOJKCC-UHFFFAOYSA-N,CCCCCCCCCCCCCCCCN(C)C,-4.652434914,0.925243029,5,G4,269.517,6.0293,88.866,19,1,0,1,15,116,0,0,0,0,3.24,122.7031006,2.914073356,153.7692728
A-2380,3-methyl-7-propan-2-ylbicyclo[2.2.2]oct-3-ene-6-carbaldehyde,"InChI=1S/C13H20O/c1-8(2)12-6-10-5-11(7-14)13(12)4-9(10)3/h7-8,11-13H,4-6H2,1-3H3",BNAYNPKNDLTBTJ-UHFFFAOYSA-N,CC(C)C1CC2=C(C)CC1C(C2)C=O,-3.850854284,0,1,G1,192.302,3.2039,57.923,14,1,0,1,2,78,0,1,3,3,17.07,86.57881316,2.264211899,274.9601503
A-2382,"N,N-dimethyldodecan-1-amine","InChI=1S/C14H31N/c1-4-5-6-7-8-9-10-11-12-13-14-15(2)3/h4-14H2,1-3H3",YWFWDNVOPHGWMX-UHFFFAOYSA-N,CCCCCCCCCCCCN(C)C,-4.426122744,0.403653114,3,G5,213.409,4.4689,70.398,15,1,0,1,11,92,0,0,0,0,3.24,97.24333219,2.86681313,109.9063278
A-2384,"tetrasodium 5-({4-chloro-6-[ethyl(phenyl)amino]-1,3,5-triazin-2-yl}amino)-3-[(E)-2-(1,5-disulfonatonaphthalen-2-yl)diazen-1-yl]-4-hydroxynaphthalene-2,7-disulfonate","InChI=1S/C31H24ClN7O13S4.4Na/c1-2-39(17-7-4-3-5-8-17)31-35-29(32)34-30(36-31)33-22-15-18(53(41,42)43)13-16-14-24(55(47,48)49)26(27(40)25(16)22)38-37-21-12-11-19-20(28(21)56(50,51)52)9-6-10-23(19)54(44,45)46;;;;/h3-15,40H,2H2,1H3,(H,41,42,43)(H,44,45,46)(H,47,48,49)(H,50,51,52)(H,33,34,35,36);;;;/q;4*+1/p-4",DSVQPTKJDZFKIP-UHFFFAOYSA-J,[Na+].[Na+].[Na+].[Na+].CCN(c1ccccc1)c2nc(Cl)nc(Nc3cc(cc4cc(c(N=Nc5ccc6c(cccc6[S]([O-])(=O)=O)c5[S]([O-])(=O)=O)c(O)c34)[S]([O-])(=O)=O)[S]([O-])(=O)=O)n2,-0.50252635,0.026539222,2,G3,954.218,-7.5136,192.8313,60,20,2,29,11,292,6,0,0,6,327.69,435.3769592,3.10E-06,3103.617499
A-2385,1-chloro-4-(3-chlorophenoxy)benzene,InChI=1S/C12H8Cl2O/c13-9-4-6-11(7-5-9)15-12-3-1-2-10(14)8-12/h1-8H,HPRGYUWRGCTBAV-UHFFFAOYSA-N,Clc1ccc(Oc2cccc(Cl)c2)cc1,-5.387355317,0.332758964,3,G5,239.101,4.7857,62.978,15,1,0,3,2,76,2,0,0,2,9.23,98.20857501,2.18176927,451.434228
A-2387,"[2,2-bis(2-ethylhexanoyloxymethyl)-3-[2-(2-ethylhexanoyloxymethyl)-3-(7-methyloctanoyloxy)-2-(7-methyloctanoyloxymethyl)propoxy]propyl] 7-methyloctanoate","InChI=1S/C61H112O13/c1-13-19-34-51(16-4)57(65)72-45-60(42-69-54(62)37-28-22-25-31-48(7)8,43-70-55(63)38-29-23-26-32-49(9)10)40-68-41-61(46-73-58(66)52(17-5)35-20-14-2,47-74-59(67)53(18-6)36-21-15-3)44-71-56(64)39-30-24-27-33-50(11)12/h48-53H,13-47H2,1-12H3",ATDCVWYXPQZTCI-UHFFFAOYSA-N,CCCCC(CC)C(=O)OCC(COCC(COC(=O)CCCCCC(C)C)(COC(=O)C(CC)CCCC)COC(=O)C(CC)CCCC)(COC(=O)CCCCCC(C)C)COC(=O)CCCCCC(C)C,-7.323686796,0,1,G1,1053.554,14.7037,295.126,74,13,0,13,49,434,0,0,0,0,167.03,451.3997271,7.372990919,1408.674556
A-2388,"2-hydroxypropanoic acid; 5-({bis[(2-aminopropyl)amino]-1,3,5-triazin-2-yl}amino)-3-{2-[4-({4-[(4-{2-[8-({bis[(2-aminopropyl)amino]-1,3,5-triazin-2-yl}amino)-1-hydroxy-3,6-disulfonaphthalen-2-yl]diazen-1-yl}phenyl)amino]-6-{[3-(diethylamino)propyl]amino}-1,3,5-triazin-2-yl}amino)phenyl]diazen-1-yl}-4-hydroxynaphthalene-2,7-disulfonic acid","InChI=1S/C60H77N27O14S4.C3H6O3/c1-7-87(8-2)19-9-18-65-52-76-57(70-36-10-14-38(15-11-36)83-85-48-44(104(96,97)98)22-34-20-40(102(90,91)92)24-42(46(34)50(48)88)72-59-78-53(66-26-30(3)61)74-54(79-59)67-27-31(4)62)82-58(77-52)71-37-12-16-39(17-13-37)84-86-49-45(105(99,100)101)23-35-21-41(103(93,94)95)25-43(47(35)51(49)89)73-60-80-55(68-28-32(5)63)75-56(81-60)69-29-33(6)64;1-2(4)3(5)6/h10-17,20-25,30-33,88-89H,7-9,18-19,26-29,61-64H2,1-6H3,(H,90,91,92)(H,93,94,95)(H,96,97,98)(H,99,100,101)(H3,65,70,71,76,77,82)(H3,66,67,72,74,78,79)(H3,68,69,73,75,80,81);2,4H,1H3,(H,5,6)",PQKUZJNOANDNSP-UHFFFAOYSA-N,CCN(CC)CCCNc1nc(Nc2ccc(cc2)N=Nc3c(O)c4c(Nc5nc(NCC(C)N)nc(NCC(C)N)n5)cc(cc4cc3[S](O)(=O)=O)[S](O)(=O)=O)nc(Nc6ccc(cc6)N=Nc7c(O)c8c(Nc9nc(NCC(C)N)nc(NCC(C)N)n9)cc(cc8cc7[S](O)(=O)=O)[S](O)(=O)=O)n1.CC(O)C(O)=O,-0.794219043,0,1,G1,1618.797,6.3832,413.0995,111,39,21,48,36,596,9,0,0,9,696.51,634.9633999,2.48E-06,5014.193364
A-2390,ethyl (2S)-5-carbamimidamido-2-dodecanamidopentanoate hydrochloride,"InChI=1S/C20H40N4O3.ClH/c1-3-5-6-7-8-9-10-11-12-15-18(25)24-17(19(26)27-4-2)14-13-16-23-20(21)22;/h17H,3-16H2,1-2H3,(H,24,25)(H4,21,22,23);1H/t17-;/m0./s1",CUBZMGWLVMQKNE-LMOVPXPDSA-N,Cl.CCCCCCCCCCCC(=O)N[C@@H](CCCNC(N)=N)C(=O)OCC,-0.231611963,0,1,G1,421.026,3.64027,116.8065,28,4,4,8,17,166,0,0,0,0,117.3,176.3877999,0,422.2549794
A-2392,"(1E)-1-(2,6,6-trimethylcyclohex-1-en-1-yl)pent-1-en-3-one; (1E)-1-(2,6,6-trimethylcyclohex-2-en-1-yl)pent-1-en-3-one; (3E)-3-methyl-4-(2,6,6-trimethylcyclohex-1-en-1-yl)but-3-en-2-one; (3E)-3-methyl-4-(2,6,6-trimethylcyclohex-2-en-1-yl)but-3-en-2-one","InChI=1S/C14H22O/c1-5-12(15)8-9-13-11(2)7-6-10-14(13,3)4/h7-9,13H,5-6,10H2,1-4H3/b9-8+",VPKMGDRERYMTJX-CMDGGOBGSA-N,CCC(=O)/C=C/C1C(=CCCC1(C)C)C,-3.992340979,0,1,G1,206.329,3.9042,64.7,15,1,0,1,3,84,0,0,1,1,17.07,93.2599834,2.81001261,294.4605613
A-2393,"(3E)-3-methyl-4-(2,6,6-trimethylcyclohex-2-en-1-yl)but-3-en-2-one","InChI=1S/C14H22O/c1-10-7-6-8-14(4,5)13(10)9-11(2)12(3)15/h7,9,13H,6,8H2,1-5H3/b11-9-",JRJBVWJSTHECJK-LUAWRHEFSA-N,CC(=O)C(\C)=C/C1C(=CCCC1(C)C)C,-3.992340979,0.059049656,2,G3,206.329,3.9042,64.7,15,1,0,1,2,84,0,0,1,1,17.07,93.2599834,3.000401661,318.2304019
A-2394,"(1R,2S,5R)-5-methyl-2-(propan-2-yl)cyclohexyl acetate","InChI=1S/C12H22O2/c1-8(2)11-6-5-9(3)7-12(11)14-10(4)13/h8-9,11-12H,5-7H2,1-4H3/t9-,11+,12-/m1/s1",XHXUANMFYXWVNG-ADEWGFFLSA-N,CC(C)[C@@H]1CC[C@@H](C)C[C@H]1OC(C)=O,-3.97511656,0,1,G1,198.306,3.0103,56.897,14,2,0,2,2,82,0,1,1,1,26.3,87.02285046,2.583440988,198.4984101
A-2395,3-oxo-N-[4-(3-oxobutanamido)phenyl]butanamide,"InChI=1S/C14H16N2O4/c1-9(17)7-13(19)15-11-3-5-12(6-4-11)16-14(20)8-10(2)18/h3-6H,7-8H2,1-2H3,(H,15,19)(H,16,20)",OWGNKUKYZPVEFS-UHFFFAOYSA-N,CC(=O)CC(=O)Nc1ccc(NC(=O)CC(C)=O)cc1,-3.12750109,0.101664339,2,G3,276.292,1.5218,74.2974,20,4,2,6,6,106,1,0,0,1,92.34,116.0967528,2.557234076,485.6098146
A-2397,[2-(dodecanoyloxy)ethyl]trimethylazanium chloride,"InChI=1S/C17H36NO2.ClH/c1-5-6-7-8-9-10-11-12-13-14-17(19)20-16-15-18(2,3)4;/h5-16H2,1-4H3;1H/q+1;/p-1",BBJUKVPDIPYNBS-UHFFFAOYSA-M,[Cl-].CCCCCCCCCCCC(=O)OCC[N+](C)(C)C,-2.211100306,0,1,G1,321.933,1.1607,85.7024,21,2,0,4,13,128,0,0,0,0,26.3,137.9762906,0,239.4348321
A-2401,benzyl benzoate,"InChI=1S/C14H12O2/c15-14(13-9-5-2-6-10-13)16-11-12-7-3-1-4-8-12/h1-10H,11H2",SESFRYSPDFLNCH-UHFFFAOYSA-N,O=C(OCc1ccccc1)c2ccccc2,-4.177624494,0,1,G1,212.248,3.0436,62.0035,16,2,0,2,3,80,2,0,0,2,26.3,94.49344888,1.946033281,448.6762621
A-2402,"1,1'-sulfonyldibenzene","InChI=1S/C12H10O2S/c13-15(14,11-7-3-1-4-8-11)12-9-5-2-6-10-12/h1-10H",KZTYYGOKRVBIMI-UHFFFAOYSA-N,O=[S](=O)(c1ccccc1)c2ccccc2,-4.192879941,0,1,G1,218.277,2.5194,58.3358,15,2,0,3,2,76,2,0,0,2,34.14,89.11389571,2.550501406,484.849507
A-2403,1-(morpholin-4-yl)prop-2-en-1-one,"InChI=1S/C7H11NO2/c1-2-7(9)8-3-5-10-6-4-8/h2H,1,3-6H2",XLPJNCYCZORXHG-UHFFFAOYSA-N,C=CC(=O)N1CCOCC1,0.850257585,0,1,G1,141.17,0.0312,37.596,10,2,0,3,1,56,0,1,1,1,29.54,60.26837053,2.380539913,138.5415331
A-2404,1-methoxypropan-2-ol,"InChI=1S/C4H10O2/c1-4(5)3-6-2/h4-5H,3H2,1-2H3",ARXJGSRGQADJSQ-UHFFFAOYSA-N,COCC(C)O,1.045169179,0,1,G1,90.122,0.0136,23.5568,6,2,1,2,2,38,0,0,0,0,29.46,37.74185635,2.627214848,26.72905595
A-2407,disodium 2-(6-oxido-3-oxo-3H-xanthen-9-yl)benzoate,"InChI=1S/C20H12O5.2Na/c21-11-5-7-15-17(9-11)25-18-10-12(22)6-8-16(18)19(15)13-3-1-2-4-14(13)20(23)24;;/h1-10,21H,(H,23,24);;/q;2*+1/p-2",NJDNXYGOVLYJHP-UHFFFAOYSA-L,[Na+].[Na+].[O-]C(=O)c1ccccc1C2=C3C=CC(=O)C=C3Oc4cc([O-])ccc24,-1.575505364,1.344090821,4,G4,376.275,-3.9901,88.3185,27,5,0,7,2,122,2,0,2,4,93.4,198.1143508,1.31E-06,1166.550448
A-2409,azanium; molybdenum; oxygen(-2) anion; hydrate,InChI=1S/Mo.H3N.H2O.O/h;1H3;1H2;/q;;;-2/p+1,XCOMAVCHADVANQ-UHFFFAOYSA-O,[NH4+].O.[O--].[Mo],-1.170241174,0,1,G1,147.993,-0.5698,10.2851,4,0,1,4,0,30,0,0,0,0,96.5,38.85382307,0,6
A-2411,2-sulfanylacetic acid,"InChI=1S/C2H4O2S/c3-2(4)1-5/h5H,1H2,(H,3,4)",CWERGRDVMFNCDR-UHFFFAOYSA-N,OC(=O)CS,-1.964349215,1.500024607,2,G2,92.119,0.0008,21.4888,5,2,2,3,1,30,0,0,0,0,37.3,35.21501566,2.847378923,42.91260938
A-2412,"7-hydroxy-3,7-dimethyloctanal; 1H-indole","InChI=1S/C10H20O2.C8H7N/c1-9(6-8-11)5-4-7-10(2,3)12;1-2-4-8-7(3-1)5-6-9-8/h8-9,12H,4-7H2,1-3H3;1-6,9H",NSBPKSMZAAJTFE-UHFFFAOYSA-N,CC(CCCC(C)(C)O)CC=O.[nH]1ccc2ccccc12,-4.92245094,0,1,G1,289.419,4.3206,88.2925,21,2,2,3,6,116,2,0,0,2,53.09,126.9332362,2.16E-07,494.9978899
A-2413,dioctadecyl (E)-but-2-enedioate,"InChI=1S/C40H76O4/c1-3-5-7-9-11-13-15-17-19-21-23-25-27-29-31-33-37-43-39(41)35-36-40(42)44-38-34-32-30-28-26-24-22-20-18-16-14-12-10-8-6-4-2/h35-36H,3-34,37-38H2,1-2H3/b36-35+",XHSDDKAGJYJAQM-ULDVOPSXSA-N,CCCCCCCCCCCCCCCCCCOC(=O)\C=C\C(=O)OCCCCCCCCCCCCCCCCCC,-7.094152366,0,1,G1,621.044,13.152,190.15,44,4,0,4,36,260,0,0,0,0,52.6,274.8325251,3.324676093,562.4974356
A-2414,indium(3+) ion trinitrate,InChI=1S/In.3NO3.H2O/c;3*2-1(3)4;/h;;;;1H2/q+3;3*-1;,YZZFBYAKINKKFM-UHFFFAOYSA-N,O.[In+3].[O-][N+]([O-])=O.[O-][N+]([O-])=O.[O-][N](=O)=O,-2.503579611,0,1,G1,318.845,-1.9228,40.452,14,9,0,14,0,80,0,0,0,0,230.1,92.97857336,-2.70E-08,112.9167755
A-2415,sodium methanethiolate,"InChI=1S/CH4S.Na/c1-2;/h2H,1H3;/q;+1/p-1",RMBAVIFYHOYIFM-UHFFFAOYSA-M,[Na+].C[S-],-1.845668452,0,1,G1,70.092,-2.8329,13.289,3,1,0,2,0,14,0,0,0,0,0,48.30771731,0,4.754887502
A-2417,ethyl 2-[di(phenyl)methylideneamino]acetate,"InChI=1S/C17H17NO2/c1-2-20-16(19)13-18-17(14-9-5-3-6-10-14)15-11-7-4-8-12-15/h3-12H,2,13H2,1H3",QUGJYNGNUBHTNS-UHFFFAOYSA-N,CCOC(=O)CN=C(c1ccccc1)c2ccccc2,-3.427044449,0,1,G1,267.328,3.0871,80.023,20,3,0,3,5,102,2,0,0,2,38.66,118.4835977,2.303635562,534.9537037
A-2418,"3,9-bis(2,6-di-tert-butyl-4-methylphenoxy)-2,4,8,10-tetraoxa-3,9-diphosphaspiro[5.5]undecane","InChI=1S/C35H54O6P2/c1-23-15-25(31(3,4)5)29(26(16-23)32(6,7)8)40-42-36-19-35(20-37-42)21-38-43(39-22-35)41-30-27(33(9,10)11)17-24(2)18-28(30)34(12,13)14/h15-18H,19-22H2,1-14H3",SSADPHQCUURWSW-UHFFFAOYSA-N,Cc1cc(c(OP2OCC3(CO2)COP(OC3)Oc4c(cc(C)cc4C(C)(C)C)C(C)(C)C)c(c1)C(C)(C)C)C(C)(C)C,-7.801238331,0.707486674,2,G2,632.759,10.48504,178.495,43,6,0,8,4,240,2,2,2,4,55.38,263.0711673,1.462523102,1118.549614
A-2419,aluminium(3+) ion phosphate,"InChI=1S/Al.H3O4P/c;1-5(2,3)4/h;(H3,1,2,3,4)/q+3;/p-3",ILRRQNADMUWWFW-UHFFFAOYSA-K,[Al+3].[O-][P]([O-])([O-])=O,-4.246082833,0,1,G1,121.952,-3.2054,13.3605,6,4,0,6,0,32,0,0,0,0,86.25,45.18013384,0,53.6836744
A-2420,"1,4-diethyl 2-{[4-({4-[(1,4-diethoxy-1,4-dioxobutan-2-yl)amino]-3-methylcyclohexyl}methyl)-2-methylcyclohexyl]amino}butanedioate","InChI=1S/C31H54N2O8/c1-7-38-28(34)18-26(30(36)40-9-3)32-24-13-11-22(15-20(24)5)17-23-12-14-25(21(6)16-23)33-27(31(37)41-10-4)19-29(35)39-8-2/h20-27,32-33H,7-19H2,1-6H3",YHVVJCQIMRGPPE-UHFFFAOYSA-N,CCOC(=O)CC(NC1CCC(CC2CCC(NC(CC(=O)OCC)C(=O)OCC)C(C)C2)CC1C)C(=O)OCC,-5.06653389,0,1,G1,582.779,3.9351,154.8164,41,10,2,10,16,236,0,2,2,2,129.26,245.8758458,1.871876332,770.9354981
A-2421,"N-(carboxymethyl)-3-(dodecanoylamino)-N,N-dimethylpropan-1-aminium hydroxide","InChI=1S/C19H38N2O3/c1-4-5-6-7-8-9-10-11-12-14-18(22)20-15-13-16-21(2,3)17-19(23)24/h4-17H2,1-3H3,(H-,20,22,23,24)",MRUAUOIMASANKQ-UHFFFAOYSA-N,CCCCCCCCCCCC(=O)NCCC[N+](C)(C)CC([O-])=O,-3.136750998,0,1,G1,342.524,2.2399,96.3201,24,3,1,5,16,142,0,0,0,0,69.23,147.9451544,3.427410707,343.5036016
A-2423,2-[2-(dimethylamino)ethoxy]ethan-1-ol,"InChI=1S/C6H15NO2/c1-7(2)3-5-9-6-4-8/h8H,3-6H2,1-2H3",YSAANLSYLSUVHB-UHFFFAOYSA-N,CN(C)CCOCCO,-0.12447488,0,1,G1,133.191,-0.4431,36.4588,9,3,1,3,5,56,0,0,0,0,32.7,56.23157425,2.746690907,57.01955001
A-2424,"4-nitrobenzene-1,3-diamine","InChI=1S/C6H7N3O2/c7-4-1-2-6(9(10)11)5(8)3-4/h1-3H,7-8H2",DPIZKMGPXNXSGL-UHFFFAOYSA-N,Nc1ccc(c(N)c1)[N+]([O-])=O,-2.185091479,0.697663197,2,G2,153.141,0.7592,41.9212,11,4,2,5,1,58,1,0,0,1,95.18,62.76416024,3.196069662,297.8789117
A-2425,dibutyltin dilaurate,"InChI=1S/2C12H24O2.2C4H9.Sn/c2*1-2-3-4-5-6-7-8-9-10-11-12(13)14;2*1-3-4-2;/h2*2-11H2,1H3,(H,13,14);2*1,3-4H2,2H3;/q;;;;+2/p-2",UKLDJPRMSDWDSL-UHFFFAOYSA-L,CCCCCCCCCCCC([O-])=O.CCCCCCCCCCCC([O-])=O.CCCC[Sn++]CCCC,-5.645086143,0,1,G1,631.571,8.4418,158.886,37,4,0,5,26,220,0,0,0,0,80.26,242.3206327,-4.81E-07,391.0111476
A-2428,tetraethylplumbane,"InChI=1S/4C2H5.Pb/c4*1-2;/h4*1H2,2H3;",MRMOZBOQVYRSEM-UHFFFAOYSA-N,CC[Pb](CC)(CC)CC,-5.412894457,0.380562295,3,G5,323.448,3.5148,47.678,9,0,0,1,4,56,0,0,0,0,0,64.69309592,3.824684203,47.45811191
A-2430,trans-1-(1-oxohexadecyl)-4-[(1-oxohexadecyl)oxy]-L-proline,"InChI=1S/C37H69NO5/c1-3-5-7-9-11-13-15-17-19-21-23-25-27-29-35(39)38-32-33(31-34(38)37(41)42)43-36(40)30-28-26-24-22-20-18-16-14-12-10-8-6-4-2/h33-34H,3-32H2,1-2H3,(H,41,42)/t33-,34+/m1/s1",QZLXCFQVOCEKSX-NOCHOARKSA-N,CCCCCCCCCCCCCCCC(=O)O[C@@H]1C[C@H](N(C1)C(=O)CCCCCCCCCCCCCCC)C(O)=O,-5.783875721,0,1,G1,607.961,10.5463,178.2578,43,4,1,6,30,252,0,1,1,1,83.91,265.0235149,2.075899484,696.4957649
A-2433,cerium(3+) ion trifluoride,InChI=1S/Ce.3FH/h;3*1H/q+3;;;/p-3,QCCDYNYSHILRDG-UHFFFAOYSA-K,[F-].[F-].[F-].[Ce+3],-5.863344894,0.422520274,4,G5,197.11,-8.988,0,4,0,0,4,0,25,0,0,0,0,0,55.43722415,0,3.245112498
A-2434,triphenylphosphane,InChI=1S/C18H15P/c1-4-10-16(11-5-1)19(17-12-6-2-7-13-17)18-14-8-3-9-15-18/h1-15H,RIOQSEWOXXDEQQ-UHFFFAOYSA-N,c1ccc(cc1)P(c2ccccc2)c3ccccc3,-6.2013011,0.131620717,2,G3,262.292,3.4448,85.148,19,0,0,1,3,92,3,0,0,3,0,115.0452769,2.121010633,523.7138976
A-2436,"3,7-dimethylocta-1,6-diene","InChI=1S/C10H18/c1-5-10(4)8-6-7-9(2)3/h5,7,10H,1,6,8H2,2-4H3",FUDNBFMOXDUIIE-UHFFFAOYSA-N,CC(CCC=C(C)C)C=C,-5.964586446,0,1,G1,138.254,3.5549,48.026,10,0,0,0,4,58,0,0,0,0,0,64.64452399,3.362923865,116
A-2437,"2,2-bis(hydroxymethyl)propane-1,3-diol; decanoic acid; heptanoic acid; octanoic acid; pentanoic acid","InChI=1S/C10H20O2.C8H16O2.C7H14O2.C5H12O4.C5H10O2/c1-2-3-4-5-6-7-8-9-10(11)12;1-2-3-4-5-6-7-8(9)10;1-2-3-4-5-6-7(8)9;6-1-5(2-7,3-8)4-9;1-2-3-4-5(6)7/h2-9H2,1H3,(H,11,12);2-7H2,1H3,(H,9,10);2-6H2,1H3,(H,8,9);6-9H,1-4H2;2-4H2,1H3,(H,6,7)",ZIRMEZKEFPNOEV-UHFFFAOYSA-N,CCCCCCCCCC(O)=O.CCCCCCCC(O)=O.CCCCCCC(O)=O.CCCCC(O)=O.OCC(CO)(CO)CO,-7.53462824,0,1,G1,684.949,6.8878,185.5894,47,8,8,12,26,284,0,0,0,0,230.12,284.1705659,-1.58E-07,649.4351967
A-2438,2-ethylhexyl 2-({2-[(2-ethylhexyl)oxy]-2-oxoethyl}sulfanyl)acetate,"InChI=1S/C20H38O4S/c1-5-9-11-17(7-3)13-23-19(21)15-25-16-20(22)24-14-18(8-4)12-10-6-2/h17-18H,5-16H2,1-4H3",KYWZILPIDASSGE-UHFFFAOYSA-N,CCCCC(CC)COC(=O)CSCC(=O)OCC(CC)CCCC,-6.654998171,0,1,G1,374.587,5.2388,105.855,25,5,0,5,16,148,0,0,0,0,52.6,158.3463959,3.790205244,314.5878547
A-2442,"2-(4-methylpent-3-enyl)anthracene-9,10-dione","InChI=1S/C20H18O2/c1-13(2)6-5-7-14-10-11-17-18(12-14)20(22)16-9-4-3-8-15(16)19(17)21/h3-4,6,8-12H,5,7H2,1-2H3",NQVBCGTZRWHVSY-UHFFFAOYSA-N,CC(C)=CCCc1ccc2C(=O)c3ccccc3C(=O)c2c1,-7.985818524,0,1,G1,290.362,4.3608,87.501,22,2,0,2,3,110,2,0,1,3,34.14,130.0356443,1.972150814,793.1045853
A-2443,"O1-nonyl O2-octyl benzene-1,2-dicarboxylate","InChI=1S/C25H40O4/c1-3-5-7-9-11-13-17-21-29-25(27)23-19-15-14-18-22(23)24(26)28-20-16-12-10-8-6-4-2/h14-15,18-19H,3-13,16-17,20-21H2,1-2H3",ZKHMKHBSASMXEZ-UHFFFAOYSA-N,CCCCCCCCCOC(=O)c1ccccc1C(=O)OCCCCCCCC,-4.780941415,0,1,G1,404.591,7.1113,118.376,29,4,0,4,17,164,1,0,0,1,52.6,176.915438,2.316672886,567.6967116
A-2444,lithium docosanoate,"InChI=1S/C22H44O2.Li/c1-2-3-4-5-6-7-8-9-10-11-12-13-14-15-16-17-18-19-20-21-22(23)24;/h2-21H2,1H3,(H,23,24);/q;+1/p-1",SDIIFPDBZMCCLQ-UHFFFAOYSA-M,[Li+].CCCCCCCCCCCCCCCCCCCCCC([O-])=O,-6.876976741,0,1,G1,346.525,3.5622,103.021,25,2,0,3,20,144,0,0,0,0,40.13,169.6563568,0,256.4117745
A-2445,lithium myristate,"InChI=1S/C14H28O2.Li/c1-2-3-4-5-6-7-8-9-10-11-12-13-14(15)16;/h2-13H2,1H3,(H,15,16);/q;+1/p-1",KJSPVJJOPONRTK-UHFFFAOYSA-M,[Li+].CCCCCCCCCCCCCC([O-])=O,-6.707031139,0,1,G1,234.309,0.4414,66.085,17,2,0,3,12,96,0,0,0,0,40.13,118.7368199,0,160.3011994
A-2446,lithium octadec-9-enoate,"InChI=1S/C18H34O2.Li/c1-2-3-4-5-6-7-8-9-10-11-12-13-14-15-16-17-18(19)20;/h9-10H,2-8,11-17H2,1H3,(H,19,20);/q;+1/p-1/b10-9-;",AVOVSJYQRZMDQJ-KVVVOXFISA-M,[Li+].CCCCCCCC\C=C/CCCCCCCC([O-])=O,-6.79723893,0,1,G1,288.401,1.7778,84.459,21,2,0,3,15,118,0,0,0,0,40.13,143.5069853,0,239.3728253
A-2447,lithium(1+) ion 12-hydroxyoctadecanoate,"InChI=1S/C18H36O3.Li/c1-2-3-4-11-14-17(19)15-12-9-7-5-6-8-10-13-16-18(20)21;/h17,19H,2-16H2,1H3,(H,20,21);/q;+1/p-1",FPLIHVCWSXLMPX-UHFFFAOYSA-M,[Li+].CCCCCCC(O)CCCCCCCCCCC([O-])=O,-6.823553607,0,1,G1,306.416,0.9726,85.9428,22,3,1,4,16,126,0,0,0,0,60.36,148.9908221,0,234.3721581
A-2448,methanidylidyneoxidanium triphenylphosphane (2Z)-4-oxopent-2-en-2-olate rhodium,"InChI=1S/C18H15P.C5H7O2.CO.Rh/c1-4-10-16(11-5-1)19(17-12-6-2-7-13-17)18-14-8-3-9-15-18;1-4(6)3-5(2)7;1-2;/h1-15H;3H,1-2H3;;/q;-1;;",ZETXURAVPSJSPU-UHFFFAOYSA-N,[Rh].CC(=O)[CH-]C(C)=O.[C-]#[O+].c1ccc(cc1)P(c2ccccc2)c3ccccc3,-7.312033591,0,1,G1,492.317,3.77348,114.7395,29,2,0,5,5,151,3,0,0,3,54.04,186.3334115,6.75E-07,759.7381851
A-2450,3-[3-(9-methyldecoxy)propylamino]propanenitrile,"InChI=1S/C17H34N2O/c1-17(2)11-7-5-3-4-6-8-15-20-16-10-14-19-13-9-12-18/h17,19H,3-11,13-16H2,1-2H3",JWIXWVDMADJVJP-UHFFFAOYSA-N,CC(C)CCCCCCCCOCCCNCCC#N,-3.618466492,0,1,G1,282.472,4.28308,85.6927,20,3,1,3,15,118,0,0,0,0,45.05,125.634312,2.94349439,223.5201186
A-2451,[(1S)-3-(4-methylpent-3-enyl)-1-cyclohex-3-enyl]methyl acetate,"InChI=1S/C15H24O2/c1-12(2)6-4-7-14-8-5-9-15(10-14)11-17-13(3)16/h6,8,15H,4-5,7,9-11H2,1-3H3/t15-/m0/s1",IIUKCYITROTKFB-HNNXBMFYSA-N,CC(=O)OC[C@H]1CCC=C(CCC=C(C)C)C1,-4.975624785,0,1,G1,236.355,4.0224,70.722,17,2,0,2,5,96,0,0,1,1,26.3,104.7384707,2.299433807,308.8835094