ID,Name,InChI,InChIKey,SMILES,Solubility,SD,Ocurrences,Group,MolWt,MolLogP,MolMR,HeavyAtomCount,NumHAcceptors,NumHDonors,NumHeteroatoms,NumRotatableBonds,NumValenceElectrons,NumAromaticRings,NumSaturatedRings,NumAliphaticRings,RingCount,TPSA,LabuteASA,BalabanJ,BertzCT
A-4374,"2-[7-(diethylamino)-2-oxo-2H-1-benzopyran-3-yl]-1,3-dimethyl-1H-benzimidazolium chloride","InChI=1S/C22H24N3O2.ClH/c1-5-25(6-2)16-12-11-15-13-17(22(26)27-20(15)14-16)21-23(3)18-9-7-8-10-19(18)24(21)4;/h7-14H,5-6H2,1-4H3;1H/q+1;/p-1",LCVNGSHJQQOSDB-UHFFFAOYSA-M,[Cl-].CCN(CC)c1ccc2C=C(C(=O)Oc2c1)c3n(C)c4ccccc4[n+]3C,-1.450561375,0,1,G1,397.906,0.6264,109.134,28,4,0,6,4,146,4,0,0,4,42.26,169.7694963,2.25E-06,1166.823992
A-4376,4-methylpentan-2-one,"InChI=1S/C6H12O/c1-5(2)4-6(3)7/h5H,4H2,1-3H3",NTIZESTWPVYFNL-UHFFFAOYSA-N,CC(C)CC(C)=O,-0.851479539,0.285318383,4,G5,100.161,1.6215,30.136,7,1,0,1,2,42,0,0,0,0,17.07,44.7254837,3.126006652,64.58027135
A-4377,2-methoxyaniline,"InChI=1S/C7H9NO/c1-9-7-5-3-2-4-6(7)8/h2-5H,8H2,1H3",VMPITZXILSNTON-UHFFFAOYSA-N,COc1ccccc1N,-0.944324013,0.022887994,2,G3,123.155,1.2774,37.4064,9,2,1,2,1,48,1,0,0,1,35.25,54.24978116,3.006524007,197.8625685
A-4379,{2-[2-(ethenyloxy)ethoxy]ethoxy}ethene,"InChI=1S/C8H14O3/c1-3-9-5-7-11-8-6-10-4-2/h3-4H,1-2,5-8H2",SAMJGBVVQUEMGC-UHFFFAOYSA-N,C=COCCOCCOC=C,-1.053070208,0,1,G1,158.197,1.3232,43.117,11,3,0,3,8,64,0,0,0,0,27.69,67.25527545,2.785899709,89.51029297
A-4383,"trisodium 7-({4-chloro-6-[(3-sulfonatophenyl)amino]-1,3,5-triazin-2-yl}(methyl)amino)-4-hydroxy-3-[(E)-2-(2-sulfonatophenyl)diazen-1-yl]naphthalene-2-sulfonate","InChI=1S/C26H20ClN7O10S3.3Na/c1-34(26-30-24(27)29-25(31-26)28-15-5-4-6-17(13-15)45(36,37)38)16-9-10-18-14(11-16)12-21(47(42,43)44)22(23(18)35)33-32-19-7-2-3-8-20(19)46(39,40)41;;;/h2-13,32H,1H3,(H,36,37,38)(H,39,40,41)(H,42,43,44)(H,28,29,30,31);;;/q;3*+1/p-3/b33-22-;;;",HTXSZYABOIULBS-ZHMXUHHZSA-K,[Na+].[Na+].[Na+].CN(c1ccc2c(c1)C=C(/C(=N/Nc3ccccc3[S]([O-])(=O)=O)C2=O)[S]([O-])(=O)=O)c4nc(Cl)nc(Nc5cccc(c5)[S]([O-])(=O)=O)n4,-0.752029987,0,1,G1,788.085,-6.5928,164.4975,50,17,2,24,9,244,4,0,1,5,267,356.7068178,2.89E-06,2366.49768
A-4386,copper(2+) dinitrate,InChI=1S/Cu.2NO3/c;2*2-1(3)4/q+2;2*-1,XTVVROIMIGLXTD-UHFFFAOYSA-N,[Cu++].[O-][N+]([O-])=O.[O-][N+]([O-])=O,0.866122887,0,1,G1,187.554,-0.4807,20.7228,9,6,0,9,0,57,0,0,0,0,132.4,58.77825629,-7.20E-08,69.05865003
A-4392,1H-pyrazole,"InChI=1S/C3H4N2/c1-2-4-5-3-1/h1-3H,(H,4,5)",WTKZEGDFNFYCGP-UHFFFAOYSA-N,[nH]1cccn1,1.28788965,0.916544825,2,G2,68.079,0.4097,18.5877,5,1,1,2,0,26,1,0,0,1,28.68,29.82866509,3.125,61.36993061
A-4393,[2-[[4-[(2-chloro-4-nitrophenyl)azo]phenyl]ethylamino]ethyl](2-hydroxypropyl)dimethylammonium acetate,"InChI=1S/C21H29ClN5O3.C2H4O2/c1-5-25(12-13-27(3,4)15-16(2)28)18-8-6-17(7-9-18)23-24-21-11-10-19(26(29)30)14-20(21)22;1-2(3)4/h6-11,14,16,28H,5,12-13,15H2,1-4H3;1H3,(H,3,4)/q+1;/p-1",XSFKEMHKDFPDNK-UHFFFAOYSA-M,CCN(CC[N+](C)(C)CC(C)O)c1ccc(cc1)N=Nc2ccc(cc2Cl)[N+]([O-])=O.CC([O-])=O,-0.573145985,0,1,G1,493.992,3.7033,130.8156,34,8,1,11,10,186,2,0,0,2,131.46,204.39134,1.33E-06,976.2161768
A-4394,[2-[[4-[(2-chloro-4-nitrophenyl)azo]phenyl]ethylamino]ethyl](2-hydroxypropyl)dimethylammonium chloride,"InChI=1S/C21H29ClN5O3.ClH/c1-5-25(12-13-27(3,4)15-16(2)28)18-8-6-17(7-9-18)23-24-21-11-10-19(26(29)30)14-20(21)22;/h6-11,14,16,28H,5,12-13,15H2,1-4H3;1H/q+1;/p-1",ACBFJDARQXVXLX-UHFFFAOYSA-M,[Cl-].CCN(CC[N+](C)(C)CC(C)O)c1ccc(cc1)N=Nc2ccc(cc2Cl)[N+]([O-])=O,-0.551894305,0,1,G1,470.401,1.9511,120.1346,31,6,1,10,10,170,2,0,0,2,91.33,193.852962,4.80E-06,889.0839827
A-4395,copper(2+) ion bis(5-oxopyrrolidine-2-carboxylate),"InChI=1S/2C5H7NO3.Cu/c2*7-4-2-1-3(6-4)5(8)9;/h2*3H,1-2H2,(H,6,7)(H,8,9);/q;;+2/p-2",CKBLQUOAMGLVCH-UHFFFAOYSA-L,[Cu++].[O-]C(=O)C1CCC(=O)N1.[O-]C(=O)C2CCC(=O)N2,-0.384250204,0,1,G1,319.76,-3.9727,52.3434,19,6,2,9,2,109,0,2,2,2,138.46,118.9477994,3.24E-07,350.2161669
A-4396,disodium 3-[(E)-2-{3-methoxy-4-[({2-methoxy-4-[(E)-2-(3-sulfonatophenyl)diazen-1-yl]phenyl}carbamoyl)amino]phenyl}diazen-1-yl]benzene-1-sulfonate,"InChI=1S/C27H24N6O9S2.2Na/c1-41-25-15-19(32-30-17-5-3-7-21(13-17)43(35,36)37)9-11-23(25)28-27(34)29-24-12-10-20(16-26(24)42-2)33-31-18-6-4-8-22(14-18)44(38,39)40;;/h3-16H,1-2H3,(H2,28,29,34)(H,35,36,37)(H,38,39,40);;/q;2*+1/p-2",MFZGSFUTGDGCSC-UHFFFAOYSA-L,[Na+].[Na+].COc1cc(ccc1NC(=O)Nc2ccc(cc2OC)N=Nc3cccc(c3)[S]([O-])(=O)=O)N=Nc4cccc(c4)[S]([O-])(=O)=O,-0.714875651,0,1,G1,684.62,-0.0052,155.7918,46,13,2,19,10,228,4,0,0,4,223.43,308.163476,3.68E-06,1852.396502
A-4400,1-hydroxypropan-2-yl 2-methylprop-2-enoate 2-hydroxypropyl 2-methylprop-2-enoate,"InChI=1S/C7H12O3/c1-5(2)7(9)10-6(3)4-8/h6,8H,1,4H2,2-3H3",ZMARGGQEAJXRFP-UHFFFAOYSA-N,CC(CO)OC(=O)C(C)=C,-0.044931546,0,1,G1,144.17,0.4865,37.4538,10,3,1,3,3,58,0,0,0,0,46.53,60.30860176,3.683207393,139.7866456
A-4401,"7-methyl-3,4-dihydro-2H-1,5-benzodioxepin-3-one","InChI=1S/C10H10O3/c1-7-2-3-9-10(4-7)13-6-8(11)5-12-9/h2-4H,5-6H2,1H3",SWUIQEBPZIHZQS-UHFFFAOYSA-N,Cc1ccc2OCC(=O)COc2c1,-1.114155449,0,1,G1,178.187,1.33532,47.176,13,3,0,3,0,68,1,0,1,2,35.53,76.27395298,2.350473902,344.0231368
A-4402,"diethyl pyridine-2,4-dicarboxylate","InChI=1S/C11H13NO4/c1-3-15-10(13)8-5-6-12-9(7-8)11(14)16-4-2/h5-7H,3-4H2,1-2H3",MUUDQLHCIAOWPR-UHFFFAOYSA-N,CCOC(=O)c1ccnc(c1)C(=O)OCC,-1.2184149,0,1,G1,223.228,1.435,56.15,16,5,0,5,4,86,1,0,0,1,65.49,93.39083845,2.860017286,356.0758819
A-4404,"potassium sodium 4,4'-bis[6-anilino-4-[bis(2-hydroxyethyl)amino]-1,3,5-triazin-2-yl]amino]stilbene-2,2'-disulphonate","InChI=1S/C40H44N12O10S2.2K.2Na/c53-21-17-51(18-22-54)39-47-35(41-29-7-3-1-4-8-29)45-37(49-39)43-31-15-13-27(33(25-31)63(57,58)59)11-12-28-14-16-32(26-34(28)64(60,61)62)44-38-46-36(42-30-9-5-2-6-10-30)48-40(50-38)52(19-23-55)20-24-56;;;;/h1-16,25-26,53-56H,17-24H2,(H,57,58,59)(H,60,61,62)(H2,41,43,45,47,49)(H2,42,44,46,48,50);;;;/q;;;2*+1/p-2/b12-11+;;;;",DQMJISXEQAOPNR-MOSUJMLHSA-L,[Na+].[Na+].[K].[K].OCCN(CCO)c1nc(Nc2ccccc2)nc(Nc3ccc(\C=C\c4ccc(Nc5nc(Nc6ccccc6)nc(n5)N(CCO)CCO)cc4[S]([O-])(=O)=O)c(c3)[S]([O-])(=O)=O)n1,-1.887960137,0,1,G1,1039.16,-4.162,247.6844,68,22,8,28,22,338,6,0,0,6,327.26,521.8198319,3.97E-06,2601.136655
A-4405,2-hydroxy-2-methyl-1-phenylpropan-1-one,"InChI=1S/C10H12O2/c1-10(2,12)9(11)8-6-4-3-5-7-8/h3-7,12H,1-2H3",XMLYCEVDHLAQEL-UHFFFAOYSA-N,CC(C)(O)C(=O)c1ccccc1,-1.091532091,0,1,G1,164.204,1.6402,47.0703,12,2,1,2,2,64,1,0,0,1,37.3,71.84692743,2.944341945,269.6400955
A-4406,"5-methyl-3a,4,7,7a-tetrahydro-2-benzofuran-1,3-dione","InChI=1S/C9H10O3/c1-5-2-3-6-7(4-5)9(11)12-8(6)10/h2,6-7H,3-4H2,1H3",OEMSKMUAMXLNKL-UHFFFAOYSA-N,CC1=CCC2C(C1)C(=O)OC2=O,-1.09999437,0,1,G1,166.176,1.0423,41.07,12,3,0,3,0,64,0,1,2,2,43.37,70.39411203,2.268028637,277.4982352
A-4407,[(2-ethylhexyl)oxy]phosphonic acid,"InChI=1S/C8H18O.H3O4P/c1-3-5-6-8(4-2)7-9;1-5(2,3)4/h8-9H,3-7H2,1-2H3;(H3,1,2,3,4)",FZQYZMODYSBPES-UHFFFAOYSA-N,CCCCC(CC)CO.O[P](O)(O)=O,-1.237789285,1.673028483,2,G2,228.225,1.2665,54.6547,14,2,4,6,5,88,0,0,0,0,97.99,85.02622267,0,143.545966
A-4411,2-methylbutanal,"InChI=1S/C5H10O/c1-3-5(2)4-6/h4-5H,3H2,1-2H3",BYGQBDHUGHBGMD-UHFFFAOYSA-N,CCC(C)C=O,-0.821231264,0,1,G1,86.134,1.2314,25.519,6,1,0,1,2,36,0,0,0,0,17.07,38.36054159,2.964900495,41.20310344
A-4412,"N,N-diisobutylformamide","InChI=1S/C9H19NO/c1-8(2)5-10(7-11)6-9(3)4/h7-9H,5-6H2,1-4H3",NTYICSDTCGMBQM-UHFFFAOYSA-N,CC(C)CN(CC(C)C)C=O,-1.082666634,0,1,G1,157.257,1.7568,47.313,11,1,0,2,5,66,0,0,0,0,20.31,69.58014371,3.665842809,100.1303606
A-4414,"N-(6-amino-1,3-dimethyl-2,4-dioxo-1,2,3,4-tetrahydropyrimidin-5-yl)formamide","InChI=1S/C7H10N4O3/c1-10-5(8)4(9-3-12)6(13)11(2)7(10)14/h3H,8H2,1-2H3,(H,9,12)",ZNDGAXCBZGSJGU-UHFFFAOYSA-N,CN1C(=C(NC=O)C(=O)N(C)C1=O)N,-1.183120855,0,1,G1,198.182,-1.7655,51.0231,14,6,2,7,2,76,1,0,0,1,99.12,78.75978758,3.681500354,484.933879
A-4415,"trisodium 5-({4-chloro-6-[ethyl(phenyl)amino]-1,3,5-triazin-2-yl}amino)-4-hydroxy-3-[(E)-2-(4-methyl-2-sulfonatophenyl)diazen-1-yl]naphthalene-2,7-disulfonate","InChI=1S/C28H24ClN7O10S3.3Na/c1-3-36(17-7-5-4-6-8-17)28-32-26(29)31-27(33-28)30-20-14-18(47(38,39)40)12-16-13-22(49(44,45)46)24(25(37)23(16)20)35-34-19-10-9-15(2)11-21(19)48(41,42)43;;;/h4-14,34H,3H2,1-2H3,(H,38,39,40)(H,41,42,43)(H,44,45,46)(H,30,31,32,33);;;/q;3*+1/p-3/b35-24+;;;",WIBRJYWLQKJILM-YFVOZPKESA-K,[Na+].[Na+].[Na+].CCN(c1ccccc1)c2nc(Cl)nc(Nc3cc(cc4C=C(\C(=N/Nc5ccc(C)cc5[S]([O-])(=O)=O)C(=O)c34)[S]([O-])(=O)=O)[S]([O-])(=O)=O)n2,-0.800434395,0,1,G1,816.139,-5.89428,173.8515,52,17,2,24,10,256,4,0,1,5,267,369.4367021,3.12E-06,2422.939261
A-4416,2-[(prop-2-en-1-yloxy)methyl]oxirane,"InChI=1S/C6H10O2/c1-2-3-7-4-6-5-8-6/h2,6H,1,3-5H2",LSWYGACWGAICNM-UHFFFAOYSA-N,C=CCOCC1CO1,0.049756882,0.019459033,2,G3,114.144,0.5878,30.756,8,2,0,2,4,46,0,1,1,1,21.76,49.09561787,1.803593801,76.59772061
A-4423,"ethyl (2-methyl-1,3-dioxolan-2-yl)acetate","InChI=1S/C8H14O4/c1-3-10-7(9)6-8(2)11-4-5-12-8/h3-6H2,1-2H3",XWEOGMYZFCHQNT-UHFFFAOYSA-N,CCOC(=O)CC1(C)OCCO1,-0.144823593,0,1,G1,174.196,0.7026,41.559,12,4,0,4,3,70,0,1,1,1,44.76,71.79017246,2.329307604,160.4407955
A-4424,"3,3'-[azoxybis[(2-methoxy-p-phenylene)azo]]bis[4,5-dihydroxynaphthalene-2,7-disulphonic] acid, lithium sodium salt","InChI=1S/C34H26N6O19S4.2Li.2Na/c1-58-25-11-17(3-5-21(25)35-37-31-27(62(52,53)54)9-15-7-19(60(46,47)48)13-23(41)29(15)33(31)43)39-40(45)18-4-6-22(26(12-18)59-2)36-38-32-28(63(55,56)57)10-16-8-20(61(49,50)51)14-24(42)30(16)34(32)44;;;;/h3-14,36,41-42,45H,1-2H3,(H,46,47,48)(H,49,50,51)(H,52,53,54)(H,55,56,57);;;;/q;4*+1/p-4/b35-21-,37-31-,38-32+,39-17+;;;;",OJJZXLAZFFTFNT-AZMQIZTHSA-J,[Li+].[Li+].[Na+].[Na+].COc1cc(ccc1N\N=C/2C(=O)c3c(O)cc(cc3C=C2[S]([O-])(=O)=O)[S]([O-])(=O)=O)N(O)\N=C\4C=CC(=N\N=C\5C(=O)c6c(O)cc(cc6C=C5[S]([O-])(=O)=O)[S]([O-])(=O)=O)\C(=C4)OC,-0.909479678,0,1,G1,1006.703,-11.2876,211.0036,67,25,4,33,11,330,3,0,3,6,406.8,447.2335024,3.85E-06,3320.065504
A-4426,potassium vanadium trioxide,InChI=1S/K.3O.V/q+1;;;-1;,BQFYGYJPBUKISI-UHFFFAOYSA-N,[K+].[O-][V](=O)=O,-0.046573827,0,1,G1,138.037,-4.4251,1.373,5,3,0,5,0,24,0,0,0,0,57.2,76.5376572,0,55.29331487
A-4427,lanthanum trinitrate,InChI=1S/La,FZLIPJUXYLNCLC-UHFFFAOYSA-N,[La],0.947184106,0,1,G1,138.906,0,0,1,0,0,1,0,3,0,0,0,0,0,35.47218132,0,0
A-4428,"dilithium(1+) ion sodium hydrogen 4-amino-6-(2-{5-[(5-chloro-2,6-difluoropyrimidin-4-yl)amino]-2-sulfonatophenyl}diazen-1-yl)-5-hydroxy-3-(2-{4-[2-(sulfonatooxy)ethanesulfonyl]phenyl}diazen-1-yl)naphthalene-2,7-disulfonate","InChI=1S/C28H21ClF2N8O16S5.2Li.2Na/c29-21-26(30)34-28(31)35-27(21)33-14-3-6-17(57(43,44)45)16(11-14)37-39-24-19(59(49,50)51)10-12-9-18(58(46,47)48)23(22(32)20(12)25(24)40)38-36-13-1-4-15(5-2-13)56(41,42)8-7-55-60(52,53)54;;;;/h1-6,9-11,37H,7-8,32H2,(H,33,34,35)(H,43,44,45)(H,46,47,48)(H,49,50,51)(H,52,53,54);;;;/q;4*+1/p-4/b38-36?,39-24+;;;;",OBOXNUGISJYBKV-ZKLNYUHUSA-J,[Li+].[Li+].[Na+].[Na+].Nc1c(N=Nc2ccc(cc2)[S](=O)(=O)CCO[S]([O-])(=O)=O)c(cc3C=C(\C(=N/Nc4cc(Nc5nc(F)nc(F)c5Cl)ccc4[S]([O-])(=O)=O)C(=O)c13)[S]([O-])(=O)=O)[S]([O-])(=O)=O,-0.913801018,0,1,G1,1015.13,-10.2254,194.8459,64,24,3,36,14,320,4,0,1,5,402.18,433.9683326,5.12E-06,3178.163657
A-4429,"5-[[4-chloro-6-[(3-sulphophenyl)amino]-1,3,5-triazin-2-yl]amino]-4-hydroxy-3-[[4-[[2-(sulphooxy)ethyl]sulphonyl]phenyl]azo]naphthalene-2,7-disulphonic acid, sodium salt","InChI=1S/C27H22ClN7O16S5.4Na/c28-25-31-26(29-16-2-1-3-18(12-16)53(39,40)41)33-27(32-25)30-20-13-19(54(42,43)44)10-14-11-21(55(45,46)47)23(24(36)22(14)20)35-34-15-4-6-17(7-5-15)52(37,38)9-8-51-56(48,49)50;;;;/h1-7,10-13,34H,8-9H2,(H,39,40,41)(H,42,43,44)(H,45,46,47)(H,48,49,50)(H2,29,30,31,32,33);;;;/q;4*+1/p-4/b35-23+;;;;",FBVKADSDGSVOTJ-SADQMHESSA-J,[Na+].[Na+].[Na+].[Na+].[O-][S](=O)(=O)OCC[S](=O)(=O)c1ccc(N\N=C/2C(=O)c3c(Nc4nc(Cl)nc(Nc5cccc(c5)[S]([O-])(=O)=O)n4)cc(cc3C=C2[S]([O-])(=O)=O)[S]([O-])(=O)=O)cc1,-0.903187957,0,1,G1,984.222,-11.3626,187.4192,60,23,3,33,14,298,4,0,1,5,376.36,434.8517716,4.50E-06,2929.152572
A-4430,"1,4-dimethyl butanedioate","InChI=1S/C6H10O4/c1-9-5(7)3-4-6(8)10-2/h3-4H2,1-2H3",MUXOBHXGJLMRAB-UHFFFAOYSA-N,COC(=O)CCC(=O)OC,-0.075223164,0.335214515,3,G5,146.142,0.1126,33.266,10,4,0,4,3,58,0,0,0,0,52.6,59.11409626,3.352921516,113.7095059
A-4433,"1,2-bis(oxiran-2-ylmethyl) cyclohex-4-ene-1,2-dicarboxylate","InChI=1S/C14H18O6/c15-13(19-7-9-5-17-9)11-3-1-2-4-12(11)14(16)20-8-10-6-18-10/h1-2,9-12H,3-8H2",KTPIWUHKYIJBCR-UHFFFAOYSA-N,O=C(OCC1CO1)C2CC=CCC2C(=O)OCC3CO3,-1.34010886,0,1,G1,282.292,0.4528,66.752,20,6,0,6,6,110,0,2,3,3,77.66,116.5536271,1.522334874,371.8871911
A-4434,calcium bis((2Z)-4-oxopent-2-en-2-olate),"InChI=1S/2C5H7O2.Ca/c2*1-4(6)3-5(2)7;/h2*3H,1-2H3;/q2*-1;+2",XVYOQBDTLDXFQL-UHFFFAOYSA-N,[Ca++].CC(=O)[CH-]C(C)=O.CC(=O)[CH-]C(C)=O,-1.266527042,0,1,G1,238.296,0.35658,57.078,15,4,0,5,4,80,0,0,0,0,68.28,119.7914176,-1.80E-07,195.8069433
A-4435,disodium 6-amino-5-[(E)-2-[4-(2-bromoprop-2-enamido)-2-sulfonatophenyl]diazen-1-yl]-4-hydroxynaphthalene-2-sulfonate,"InChI=1S/C19H15BrN4O8S2.2Na/c1-9(20)19(26)22-11-3-5-14(16(7-11)34(30,31)32)23-24-18-13(21)4-2-10-6-12(33(27,28)29)8-15(25)17(10)18;;/h2-8,21,23-24H,1H2,(H,22,26)(H,27,28,29)(H,30,31,32);;/q;2*+1/p-2",LRXBCDZWNALTBO-UHFFFAOYSA-L,[Na+].[Na+].[O-][S](=O)(=O)C1=CC(=O)C2=C(NNc3ccc(NC(=O)C(Br)=C)cc3[S]([O-])(=O)=O)C(=N)C=CC2=C1,-1.6785332,0,1,G1,615.351,-4.85583,122.6232,36,11,4,17,7,178,1,0,2,3,208.48,258.2957098,3.24E-06,1513.293784
A-4436,"3,4-dihydroxybenzonitrile","InChI=1S/C7H5NO2/c8-4-5-1-2-6(9)7(10)3-5/h1-3,9-10H",NUWHYWYSMAPBHK-UHFFFAOYSA-N,Oc1ccc(cc1O)C#N,-1.023516095,0.021004572,2,G3,135.122,0.96948,34.4866,10,3,2,3,0,50,1,0,0,1,64.25,57.77739242,3.200117781,288.1478479
A-4437,2-[2-(2-{2-[(2-methylprop-2-enoyl)oxy]ethoxy}ethoxy)ethoxy]ethyl 2-methylprop-2-enoate,"InChI=1S/C16H26O7/c1-13(2)15(17)22-11-9-20-7-5-19-6-8-21-10-12-23-16(18)14(3)4/h1,3,5-12H2,2,4H3",LTHJXDSHSVNJKG-UHFFFAOYSA-N,CC(=C)C(=O)OCCOCCOCCOCCOC(=O)C(C)=C,-1.41863926,0,1,G1,330.377,1.2748,84.003,23,7,0,7,14,132,0,0,0,0,80.29,136.724947,3.192574799,353.8899896
A-4438,4-aminobenzenesulfonic acid,"InChI=1S/C6H7NO3S/c7-5-1-3-6(4-2-5)11(8,9)10/h1-4H,7H2,(H,8,9,10)",HVBSAKJJOYLTQU-UHFFFAOYSA-N,Nc1ccc(cc1)[S](O)(=O)=O,-1.141273025,0.036160805,3,G5,173.193,0.5155,40.669,11,3,2,5,1,60,1,0,0,1,80.39,64.39992983,3.201515931,340.5950745
A-4439,methoxycyclopentane,"InChI=1S/C6H12O/c1-7-6-4-2-3-5-6/h6H,2-5H2,1H3",SKTCDJAMAYNROS-UHFFFAOYSA-N,COC1CCCC1,-0.903788639,0,1,G1,100.161,1.5754,29.265,7,1,0,1,1,42,0,1,1,1,9.23,44.67167568,2.139963319,46.14170945
A-4440,"3,4-diaminobenzenesulfonic acid","InChI=1S/C6H8N2O3S/c7-5-2-1-4(3-6(5)8)12(9,10)11/h1-3H,7-8H2,(H,9,10,11)",FKSRSWQTEJTBMI-UHFFFAOYSA-N,Nc1ccc(cc1N)[S](O)(=O)=O,-1.181216395,0,1,G1,188.208,0.0977,45.0814,12,4,3,6,1,66,1,0,0,1,106.41,69.73982052,3.327295999,399.2542668
A-4442,(E)-N-(pyridin-2-ylmethylidene)hydroxylamine,"InChI=1S/C6H6N2O/c9-8-5-6-3-1-2-4-7-6/h1-5,7H/b6-5+",VRGKDCRTYBCJTA-AATRIKPKSA-N,O=N\C=C/1NC=CC=C1,-1.000451858,0,1,G1,122.127,1.2673,35.2937,9,3,1,3,1,46,0,0,1,1,41.46,52.73391552,2.650721189,191.2345412
A-4444,"3a,4,7,7a-tetrahydro-1H-isoindole-1,3(2H)-dione","InChI=1S/C8H9NO2/c10-7-5-3-1-2-4-6(5)8(11)9-7/h1-2,5-6H,3-4H2,(H,9,10,11)",CIFFBTOJCKSRJY-UHFFFAOYSA-N,O=C1NC(=O)C2CC=CCC12,-1.093091418,0,1,G1,151.165,0.2252,38.5037,11,2,1,3,0,58,0,1,2,2,46.17,64.46548687,2.275089056,220.4766131
A-4445,"3,5,5-trimethylcyclohex-2-en-1-one","InChI=1S/C9H14O/c1-7-4-8(10)6-9(2,3)5-7/h4H,5-6H2,1-3H3",HJOVHMDZYOCNQW-UHFFFAOYSA-N,CC1=CC(=O)CC(C)(C)C1,-1.061358221,0.041093378,2,G3,138.21,2.3218,41.779,10,1,0,1,0,56,0,0,1,1,17.07,62.12487586,2.79815417,186.9049472
A-4446,3-methylaniline,"InChI=1S/C7H9N/c1-6-3-2-4-7(8)5-6/h2-5H,8H2,1H3",JJYPMNFTHPTTDI-UHFFFAOYSA-N,Cc1cccc(N)c1,-0.950835248,0.088613646,4,G5,107.156,1.57722,35.5914,8,1,1,1,0,42,1,0,0,1,26.02,49.13623593,3.077660438,164.2466295
A-4449,"1-{bis[4-(diethylamino)phenyl]methyl}naphthalene-2,7-disulfonic acid","InChI=1S/C31H36N2O6S2/c1-5-32(6-2)25-15-9-23(10-16-25)30(24-11-17-26(18-12-24)33(7-3)8-4)31-28-21-27(40(34,35)36)19-13-22(28)14-20-29(31)41(37,38)39/h9-21,30H,5-8H2,1-4H3,(H,34,35,36)(H,37,38,39)",BCYNJKQQXIODNZ-UHFFFAOYSA-N,CCN(CC)c1ccc(cc1)C(c2ccc(cc2)N(CC)CC)c3c4cc(ccc4ccc3[S](O)(=O)=O)[S](O)(=O)=O,-0.698476149,0,1,G1,596.771,6.2058,164.5282,41,6,2,10,11,218,4,0,0,4,115.22,242.2886745,2.06741947,1667.675673
A-4450,2-methylbutan-2-ol,"InChI=1S/C5H12O/c1-4-5(2,3)6/h6H,4H2,1-3H3",MSXVEPNJUHWQHW-UHFFFAOYSA-N,CCC(C)(C)O,0.126659691,0.027049225,4,G5,88.15,1.1673,26.5888,6,1,1,1,1,38,0,0,0,0,20.23,38.99325324,3.168489873,33.69332843
A-4451,rhodium(3+) ion trinitrate,InChI=1S/3NO3.Rh/c3*2-1(3)4;/q3*-1;+3,VXNYVYJABGOSBX-UHFFFAOYSA-N,[Rh+3].[O-][N+]([O-])=O.[O-][N+]([O-])=O.[O-][N+]([O-])=O,0.607411262,0,1,G1,288.918,-0.7198,31.0842,13,9,0,13,0,78,0,0,0,0,198.6,81.47304319,-4.50E-08,112.4094789
A-4453,thiourea,"InChI=1S/CH4N2S/c2-1(3)4/h(H4,2,3,4)",UMGDCJDMYOKAJW-UHFFFAOYSA-N,NC(N)=S,0.188516266,0.102251454,6,G5,76.124,-0.8113,20.9728,4,1,2,3,0,24,0,0,0,0,52.04,29.77781267,2.803039488,29.01955001
A-4456,"5-(benzoylamino)-3-[[5-[[(5-chloro-2,6-difluoro-4-pyrimidinyl)amino]methyl]-1-sulpho-2-naphthyl]azo]-4-hydroxynaphthalene-2,7-disulphonic acid, lithium sodium salt","InChI=1S/C32H21ClF2N6O11S3.Li.2Na/c33-25-29(34)38-32(35)39-30(25)36-14-16-7-4-8-20-19(16)9-10-21(28(20)55(50,51)52)40-41-26-23(54(47,48)49)12-17-11-18(53(44,45)46)13-22(24(17)27(26)42)37-31(43)15-5-2-1-3-6-15;;;/h1-13,40H,14H2,(H,37,43)(H,36,38,39)(H,44,45,46)(H,47,48,49)(H,50,51,52);;;/q;3*+1/p-3/b41-26+;;;",XBPKXTOUESGOQS-JVNZOHJBSA-K,[Li+].[Na+].[Na+].[O-][S](=O)(=O)c1cc(NC(=O)c2ccccc2)c3C(=O)C(=N/Nc4ccc5c(CNc6nc(F)nc(F)c6Cl)cccc5c4[S]([O-])(=O)=O)/C(=Cc3c1)[S]([O-])(=O)=O,-0.890086508,0,1,G1,885.098,-5.2035,188.0587,58,16,3,26,10,284,5,0,1,6,279.97,388.7005638,3.00E-06,2897.991793
A-4458,"benzene-1,3-diol","InChI=1S/C6H6O2/c7-5-2-1-3-6(8)4-5/h1-4,7-8H",GHMLBKRAJCXXBS-UHFFFAOYSA-N,Oc1cccc(O)c1,1.003488328,0.132434594,4,G5,110.112,1.0978,29.7716,8,2,2,2,0,42,1,0,0,1,40.46,47.01987062,3.077660438,166.3883389
A-4459,1-hexadecylpyridinium chloride,"InChI=1S/C21H38N.ClH/c1-2-3-4-5-6-7-8-9-10-11-12-13-14-16-19-22-20-17-15-18-21-22;/h15,17-18,20-21H,2-14,16,19H2,1H3;1H/q+1;/p-1",YMKDRGPMQRFJGP-UHFFFAOYSA-M,[Cl-].CCCCCCCCCCCCCCCC[n+]1ccccc1,-0.486149552,0,1,G1,339.995,3.4594,96.949,23,0,0,2,15,134,1,0,0,1,3.88,150.8531897,4.84E-06,325.8732713
A-4461,"2-[(allyloxy)methyl]-2-methylbutane-1,1-diol","InChI=1S/C9H18O3/c1-3-5-12-8-9(4-2,6-10)7-11/h3,10-11H,1,4-8H2,2H3",LZDXRPVSAKWYDH-UHFFFAOYSA-N,CCC(CO)(CO)COCC=C,-0.199755177,0,1,G1,174.24,0.57,47.9116,12,3,2,3,7,72,0,0,0,0,49.69,73.67119764,3.835346308,110.6773929
A-4462,2-hydroxy-4-(methylsulfanyl)butanenitrile,"InChI=1S/C5H9NOS/c1-8-3-2-5(7)4-6/h5,7H,2-3H2,1H3",VWWOJJANXYSACS-UHFFFAOYSA-N,CSCCC(O)C#N,-0.07654115,0,1,G1,131.2,0.62398,34.6188,8,3,1,3,3,46,0,0,0,0,44.02,53.50894294,3.016257821,88.91968454
A-4463,3-methylbut-2-enal,"InChI=1S/C5H8O/c1-5(2)3-4-6/h3-4H,1-2H3",SEPQTYODOKLVSB-UHFFFAOYSA-N,CC(C)=CC=O,0.116503747,0,1,G1,84.118,1.1515,25.495,6,1,0,1,1,34,0,0,0,0,17.07,37.67093855,3.405032613,68.00763014
A-4464,lithium(1+) ion hydroxide,InChI=1S/Li.H2O/h;1H2/q+1;/p-1,WMFOQBRAJBCJND-UHFFFAOYSA-M,[Li+].[OH-],0.662123436,0.18434784,3,G5,23.948,-3.1728,1.9358,2,1,0,2,0,8,0,0,0,0,30,25.14679671,0,2
A-4465,"3,5-dimethylhex-1-yn-3-ol","InChI=1S/C8H14O/c1-5-8(4,9)6-7(2)3/h1,7,9H,6H2,2-4H3",NECRQCBKTGZNMH-UHFFFAOYSA-N,CC(C)CC(C)(O)C#C,-1.036597924,0,1,G1,126.199,1.4167,38.9118,9,1,1,1,2,52,0,0,0,0,20.23,57.08730497,3.759716238,117.01955
A-4466,cyclohex-3-ene-1-carbaldehyde,"InChI=1S/C7H10O/c8-6-7-4-2-1-3-5-7/h1-2,6-7H,3-5H2",DCFDVJPDXYGCOK-UHFFFAOYSA-N,O=CC1CCC=CC1,-0.977550168,0,1,G1,110.156,1.5416,32.545,8,1,0,1,1,44,0,0,1,1,17.07,49.39499163,2.371415796,104.9544534
A-4468,"1,3-diazinane-2,4,6-trione","InChI=1S/C4H4N2O3/c7-2-1-3(8)6-4(9)5-2/h1H2,(H2,5,6,7,8,9)",HNYOPLTXPVRDBG-UHFFFAOYSA-N,O=C1CC(=O)NC(=O)N1,-1.048661639,0.11745648,2,G3,128.087,-1.2575,26.2984,9,3,2,5,0,48,0,1,1,1,75.27,50.41253688,2.636629856,140.9675568