ID,Name,InChI,InChIKey,SMILES,Solubility,SD,Ocurrences,Group,MolWt,MolLogP,MolMR,HeavyAtomCount,NumHAcceptors,NumHDonors,NumHeteroatoms,NumRotatableBonds,NumValenceElectrons,NumAromaticRings,NumSaturatedRings,NumAliphaticRings,RingCount,TPSA,LabuteASA,BalabanJ,BertzCT
A-4924,4-[(morpholin-4-ylcarbonothioyl)sulfanyl]morpholine,InChI=1S/C9H16N2O2S2/c14-9(10-1-5-12-6-2-10)15-11-3-7-13-8-4-11/h1-8H2,HOEFWOBLOGZQIQ-UHFFFAOYSA-N,S=C(SN1CCOCC1)N2CCOCC2,-3.291300662,0,1,G1,248.373,0.5839,64.973,15,5,0,6,1,86,0,2,2,2,24.94,100.0111512,1.7428121,216.1578839
A-4926,N-(1-benzylpiperidin-4-yl)-N-phenylpropanamide,"InChI=1S/C21H26N2O/c1-2-21(24)23(19-11-7-4-8-12-19)20-13-15-22(16-14-20)17-18-9-5-3-6-10-18/h3-12,20H,2,13-17H2,1H3",POQDXIFVWVZVML-UHFFFAOYSA-N,CCC(=O)N(C1CCN(CC1)Cc2ccccc2)c3ccccc3,-3.41504339,0,1,G1,322.452,4.0942,98.96,24,2,0,3,5,126,2,1,1,3,23.55,144.4483346,1.639364676,633.403025
A-4930,"2-tert-butyl-4,6-dimethylphenol","InChI=1S/C12H18O/c1-8-6-9(2)11(13)10(7-8)12(3,4)5/h6-7,13H,1-5H3",OPLCSTZDXXUYDU-UHFFFAOYSA-N,Cc1cc(C)c(O)c(c1)C(C)(C)C,-3.171909199,0,1,G1,178.275,3.30654,56.2808,13,1,1,1,0,72,1,0,0,1,20.23,80.41528956,3.371806866,318.631741
A-4931,"4-methyl-2,3-dihydro-1H-1,3-benzodiazole-2-thione; 5-methyl-2,3-dihydro-1H-1,3-benzodiazole-2-thione","InChI=1S/C8H8N2S/c1-5-3-2-4-6-7(5)10-8(11)9-6/h2-4H,1H3,(H2,9,10,11)",UDQCDDZBBZNIFA-UHFFFAOYSA-N,Cc1cccc2NC(=S)Nc12,-3.13627918,0,1,G1,164.233,2.53391,48.2204,11,1,2,3,0,56,2,0,0,2,31.58,69.26559841,3.01202433,438.5339385
A-4932,pentasodium decanoic acid dodecanoic acid 2-(decanoyloxy)propanoate 2-(dodecanoyloxy)propanoate 2-hydroxypropanoate decanoate dodecanoate,"InChI=1S/C15H28O4.C13H24O4.2C12H24O2.2C10H20O2.C3H6O3.5Na/c1-3-4-5-6-7-8-9-10-11-12-14(16)19-13(2)15(17)18;1-3-4-5-6-7-8-9-10-12(14)17-11(2)13(15)16;2*1-2-3-4-5-6-7-8-9-10-11-12(13)14;2*1-2-3-4-5-6-7-8-9-10(11)12;1-2(4)3(5)6;;;;;/h13H,3-12H2,1-2H3,(H,17,18);11H,3-10H2,1-2H3,(H,15,16);2*2-11H2,1H3,(H,13,14);2*2-9H2,1H3,(H,11,12);2,4H,1H3,(H,5,6);;;;;/q;;;;;;;5*+1/p-5",UZWXBVXWDIJVKW-UHFFFAOYSA-I,[Na+].[Na+].[Na+].[Na+].[Na+].CCCCCCCCCCCC(O)=O.CCCCCCCCCCCC([O-])=O.CCCCCCCCCCCC(=O)OC(C)C([O-])=O.CCCCCCCCCC(O)=O.CCCCCCCCCC([O-])=O.CCCCCCCCCC(=O)OC(C)C([O-])=O.CC(O)C([O-])=O,-4.085731667,0,1,G1,1461.884,-0.7275,366.4574,99,17,3,24,59,560,0,0,0,0,348.08,713.8816119,-8.98E-08,1639.791268
A-4933,undecanal,"InChI=1S/C11H22O/c1-2-3-4-5-6-7-8-9-10-11-12/h11H,2-10H2,1H3",KMPQYAYAQWNLME-UHFFFAOYSA-N,CCCCCCCCCCC=O,-3.152023201,0,1,G1,170.296,3.7161,53.291,12,1,0,1,9,72,0,0,0,0,17.07,76.55019427,2.766764626,89.00490222
A-4934,"1,2-dichloro-4-(trifluoromethyl)benzene","InChI=1S/C7H3Cl2F3/c8-5-2-1-4(3-6(5)9)7(10,11)12/h1-3H",XILPLWOGHPSJBK-UHFFFAOYSA-N,FC(F)(F)c1ccc(Cl)c(Cl)c1,-3.267982491,0,1,G1,215.001,4.0122,41.464,12,0,0,5,0,66,1,0,0,1,0,76.8994839,3.138261336,293.1932295
A-4939,1-(4-{2-[4-(2-hydroxypropoxy)phenyl]propan-2-yl}phenoxy)propan-2-ol,"InChI=1S/C21H28O4/c1-15(22)13-24-19-9-5-17(6-10-19)21(3,4)18-7-11-20(12-8-18)25-14-16(2)23/h5-12,15-16,22-23H,13-14H2,1-4H3",MIUUNYUUEFHIHM-UHFFFAOYSA-N,CC(O)COc1ccc(cc1)C(C)(C)c2ccc(OCC(C)O)cc2,-3.499700952,0,1,G1,344.451,3.5317,99.3636,25,4,2,4,8,136,2,0,0,2,58.92,149.5885343,2.087918808,585.1011964
A-4941,2-bromobutane,"InChI=1S/C4H9Br/c1-3-4(2)5/h4H,3H2,1-2H3",UPSXAPQYNGXVBF-UHFFFAOYSA-N,CCC(C)Br,-3.111478098,0,1,G1,137.02,2.1798,28.68,5,0,0,1,1,32,0,0,0,0,0,41.70162498,2.539538861,17.60964047
A-4942,2-methylpropyl 2-phenylacetate,"InChI=1S/C12H16O2/c1-10(2)9-14-12(13)8-11-6-4-3-5-7-11/h3-7,10H,8-9H2,1-2H3",RJASFPFZACBKBE-UHFFFAOYSA-N,CC(C)COC(=O)Cc1ccccc1,-3.271047196,0,1,G1,192.258,2.4283,55.943,14,2,0,2,4,76,1,0,0,1,26.3,84.89612314,2.345166078,277.6330203
A-4943,"17-hydroxy-17-(3-hydroxyprop-1-yn-1-yl)-10,13-dimethyl-1,2,6,7,8,9,10,11,12,13,14,15,16,17-tetradecahydro-3H-cyclopenta[a]phenanthren-3-one (non-preferred name)","InChI=1S/C22H30O3/c1-20-10-6-16(24)14-15(20)4-5-17-18(20)7-11-21(2)19(17)8-12-22(21,25)9-3-13-23/h14,17-19,23,25H,4-8,10-13H2,1-2H3/t17-,18+,19+,20+,21+,22?/m1/s1",GBFFSHZRGVVSDW-ASWBSXDLSA-N,C[C@]12CCC(=O)C=C1CC[C@@H]3[C@@H]2CC[C@@]4(C)[C@H]3CCC4(O)C#CCO,-3.526033775,0,1,G1,342.479,3.2451,96.5216,25,3,2,3,0,136,0,3,4,4,57.53,150.4393228,1.668956234,683.121239
A-4944,1-chloro-4-methylbenzene,"InChI=1S/C7H7Cl/c1-6-2-4-7(8)5-3-6/h2-5H,1H3",NPDACUSDTOMAMK-UHFFFAOYSA-N,Cc1ccc(Cl)cc1,-3.102385677,0.191765247,4,G5,126.586,2.64842,36.189,8,0,0,1,0,42,1,0,0,1,0,54.09961146,3.032455532,143.2466295
A-4945,5-vinylbicyclo[2.2.1]hept-2-ene,"InChI=1S/C9H12/c1-2-8-5-7-3-4-9(8)6-7/h2-4,7-9H,1,5-6H2",INYHZQLKOKTDAI-UHFFFAOYSA-N,C=CC1CC2CC1C=C2,-3.079886402,0,1,G1,120.195,2.3846,39.041,9,0,0,0,1,48,0,1,2,2,0,56.26791957,2.186143465,155.4212455
A-4946,"2,5,8,11-tetramethyldodec-6-yne-5,8-diol","InChI=1S/C16H30O2/c1-13(2)7-9-15(5,17)11-12-16(6,18)10-8-14(3)4/h13-14,17-18H,7-10H2,1-6H3",RHRRUYIZUBAQTQ-UHFFFAOYSA-N,CC(C)CCC(C)(O)C#CC(C)(O)CCC(C)C,-3.437525292,0,1,G1,254.414,3.3642,77.1676,18,2,2,2,6,106,0,0,0,0,40.46,112.8010756,4.419430591,261.9541588
A-4947,nickel(2+) ion sulfanediide,InChI=1S/Ni.H2S/h;1H2,ZOPQVUGKTLTCMT-UHFFFAOYSA-N,S.[Ni],-3.022952972,0,1,G1,92.776,0.1103,10.381,2,0,0,2,0,18,0,0,0,0,0,30.60808483,0,2
A-4948,iron(3+) phosphate,"InChI=1S/Fe.H3O4P/c;1-5(2,3)4/h;(H3,1,2,3,4)/q+3;/p-3",WBJZTOZJJYAKHQ-UHFFFAOYSA-K,[Fe+3].[O-][P]([O-])([O-])=O,-3.261464491,0,1,G1,150.815,-2.8271,7.6065,6,4,0,6,0,37,0,0,0,0,86.25,44.90224112,0,53.6836744
A-4952,3-(3-aminobenzenesulfonyl)aniline,"InChI=1S/C12H12N2O2S/c13-9-3-1-5-11(7-9)17(15,16)12-6-2-4-10(14)8-12/h1-8H,13-14H2",LJGHYPLBDBRCRZ-UHFFFAOYSA-N,Nc1cccc(c1)[S](=O)(=O)c2cccc(N)c2,-3.511895604,0,1,G1,248.307,1.6838,67.1606,17,4,2,5,2,88,2,0,0,2,86.18,99.7936771,2.578165751,599.5601342
A-4953,"ethyl 2,6,6-trimethylcyclohexa-1,3-diene-1-carboxylate","InChI=1S/C12H18O2/c1-5-14-11(13)10-9(2)7-6-8-12(10,3)4/h6-7H,5,8H2,1-4H3",KYEZYLFPHRVFBF-UHFFFAOYSA-N,CCOC(=O)C1=C(C)C=CCC1(C)C,-3.411619706,0.033423396,3,G5,194.274,2.8521,56.871,14,2,0,2,2,78,0,0,1,1,26.3,85.6436444,3.01208057,295.4435901
A-4955,"Amines, C16-18 and C18-unsatd. alkyl","InChI=1S/C16H35N/c1-2-3-4-5-6-7-8-9-10-11-12-13-14-15-16-17/h2-17H2,1H3",FJLUATLTXUNBOT-UHFFFAOYSA-N,CCCCCCCCCCCCCCCCN,-3.583510043,0.887275214,5,G4,241.463,5.4264,79.3664,17,1,1,1,14,104,0,0,0,0,26.02,109.5532734,2.846262263,108.6935862
A-4957,octadecan-1-amine,"InChI=1S/C18H39N/c1-2-3-4-5-6-7-8-9-10-11-12-13-14-15-16-17-18-19/h2-19H2,1H3",REYJJPSVUYRZGE-UHFFFAOYSA-N,CCCCCCCCCCCCCCCCCCN,-3.631245614,0.887275214,5,G4,269.517,6.2066,88.6004,19,1,1,1,16,116,0,0,0,0,26.02,122.2831577,2.876696645,128.6257093
A-4958,3-Nitrophthalonitrile,InChI=1S/C8H3N3O2/c9-4-6-2-1-3-8(11(12)13)7(6)5-10/h1-3H,UZJZIZFCQFZDHP-UHFFFAOYSA-N,[O-][N+](=O)c1cccc(C#N)c1C#N,-2.937344842,0,1,G1,173.131,1.33816,42.5264,13,4,0,5,1,62,1,0,0,1,90.72,73.59942243,3.492939308,439.6828532
A-4959,"3-(2-chloroethyl)quinazoline-2,4(1H,3H)-dione","InChI=1S/C10H9ClN2O2/c11-5-6-13-9(14)7-3-1-2-4-8(7)12-10(13)15/h1-4H,5-6H2,(H,12,15)",HWFSVCPXNLEACG-UHFFFAOYSA-N,ClCCN1C(=O)Nc2ccccc2C1=O,-3.574799439,0,1,G1,224.647,0.9286,59.5487,15,3,1,5,2,78,2,0,0,2,54.86,90.11852976,2.84581972,600.1292572
A-4960,"1-(5,5-dimethylcyclohex-1-en-1-yl)pent-4-en-1-one","InChI=1S/C13H20O/c1-4-5-8-12(14)11-7-6-9-13(2,3)10-11/h4,7H,1,5-6,8-10H2,2-3H3",OEVIJAZJVZDBQL-UHFFFAOYSA-N,CC1(C)CCC=C(C1)C(=O)CCC=C,-3.534247486,0,1,G1,192.302,3.6582,60.153,14,1,0,1,4,78,0,0,1,1,17.07,86.89504128,2.55489316,258.4091282
A-4961,2-(2-{[(2R)-2-ethylhexyl]oxy}ethoxy)ethyl prop-2-enoate 2-(2-{[(2S)-2-ethylhexyl]oxy}ethoxy)ethyl prop-2-enoate,"InChI=1S/2C15H28O4/c2*1-4-7-8-14(5-2)13-18-10-9-17-11-12-19-15(16)6-3/h2*6,14H,3-5,7-13H2,1-2H3/t2*14-/m10/s1",AAOLSIAQZZQQCI-IKFJUQJOSA-N,CCCC[C@H](CC)COCCOCCOC(=O)C=C.CCCC[C@@H](CC)COCCOCCOC(=O)C=C,-3.994274106,0,1,G1,544.77,5.9304,152.2,38,8,0,8,26,224,0,0,0,0,89.52,231.953513,0,504.3709277
A-4962,disodium; chromium(+3) cation; 3-(3-methyl-5-oxido-1-phenylpyrazol-4-yl)diazenyl-4-oxidobenzenesulfonate; 1-(2-oxido-5-phenyldiazenylphenyl)diazenylnaphthalen-2-olate,"InChI=1S/C22H16N4O2.C16H14N4O5S.Cr.2Na/c27-20-13-11-17(24-23-16-7-2-1-3-8-16)14-19(20)25-26-22-18-9-5-4-6-15(18)10-12-21(22)28;1-10-15(16(22)20(19-10)11-5-3-2-4-6-11)18-17-13-9-12(26(23,24)25)7-8-14(13)21;;;/h1-14,27-28H;2-9,21-22H,1H3,(H,23,24,25);;;/q;;+3;2*+1/p-5",QTQCXPMMVMMHIW-UHFFFAOYSA-I,[Na+].[Na+].[Cr+3].Cc1nn(c([O-])c1N=Nc2cc(ccc2[O-])[S]([O-])(=O)=O)c3ccccc3.[O-]c4ccc(cc4N=Nc5c([O-])ccc6ccccc56)N=Nc7ccccc7,-2.691606678,0,1,G1,835.71,1.47072,189.8502,57,15,0,19,8,273,7,0,0,7,241.42,381.2227622,2.91E-07,2668.557056
A-4966,"4-(1-ethoxyvinyl)-3,3,5,5-tetramethylcyclohexanone","InChI=1S/C14H24O2/c1-7-16-10(2)12-13(3,4)8-11(15)9-14(12,5)6/h12H,2,7-9H2,1,3-6H3",YLNYLLVKHRZLGO-UHFFFAOYSA-N,CCOC(=C)C1C(C)(C)CC(=O)CC1(C)C,-3.643344283,0,1,G1,224.344,3.5681,66.059,16,2,0,2,3,92,0,1,1,1,26.3,99.06313166,3.010846454,279.8572023
A-4967,(5-amino-3-hydroxy-5-oxopentylidene)-dimethylazanium chloride,"InChI=1S/C7H14N2O2.ClH/c1-9(2)4-3-6(10)5-7(8)11;/h4,6,10H,3,5H2,1-2H3,(H-,8,11);1H",LTELZMDSXFWIGP-UHFFFAOYSA-N,[Cl-].C[N+](C)=CCC(O)CC(N)=O,0.593129503,0.006146484,2,G3,194.662,-4.0403,42.6076,12,2,2,5,4,72,0,0,0,0,66.33,78.48293749,0,166.7893111
A-4968,"1,3-dichloro-5-nitrobenzene",InChI=1S/C6H3Cl2NO2/c7-4-1-5(8)3-6(2-4)9(10)11/h1-3H,RNABGKOKSBUFHW-UHFFFAOYSA-N,[O-][N+](=O)c1cc(Cl)cc(Cl)c1,-3.584333486,0,1,G1,192.001,2.9016,43.1164,11,2,0,5,1,58,1,0,0,1,43.14,72.6909113,3.186012534,280.3837992
A-4969,cyclohexanethiol,"InChI=1S/C6H12S/c7-6-4-2-1-3-5-6/h6-7H,1-5H2",CMKBCTPCXZNQKX-UHFFFAOYSA-N,SC1CCCCC1,-3.367213956,0,1,G1,116.229,2.2489,35.859,7,1,1,1,0,42,0,1,1,1,0,50.71319711,2.12291795,46.14170945
A-4971,tin(4+) ion disulfanediide,InChI=1S/2S.Sn/q2*-2;+4,TUTLDIXHQPSHHQ-UHFFFAOYSA-N,[S--].[S--].[Sn+4],-3.580841851,0,1,G1,182.845,-0.3856,20.484,3,0,0,3,0,16,0,0,0,0,0,50.83266952,0,2.754887502
A-4972,"N-(2,6-dimethylphenyl)-2-piperazine-1,4-diium-1-ylacetamide","InChI=1S/C14H21N3O/c1-11-4-3-5-12(2)14(11)16-13(18)10-17-8-6-15-7-9-17/h3-5,15H,6-10H2,1-2H3,(H,16,18)/p+2",NJKRFQIWDJSYOK-UHFFFAOYSA-P,Cc1cccc(C)c1NC(=O)C[NH+]2CC[NH2+]CC2,0.443282789,0,1,G1,249.358,-1.29616,71.7688,18,1,3,4,3,98,1,1,1,2,50.15,108.366189,1.939573282,404.7973225
A-4973,trisodium hydrogen carbonate carbonate,"InChI=1S/2CH2O3.3Na/c2*2-1(3)4;;;/h2*(H2,2,3,4);;;/q;;3*+1/p-3",WCTAGTRAWPDFQO-UHFFFAOYSA-K,[Na+].[Na+].[Na+].OC([O-])=O.[O-]C([O-])=O,0.050861362,0,1,G1,189.994,-12.5473,13.4208,11,5,1,9,0,48,0,0,0,0,123.55,128.8502024,-1.71E-08,73.82818532
A-4974,5-Chlorothiophene-2-sulfonamide,"InChI=1S/C4H4ClNO2S2/c5-3-1-2-4(9-3)10(6,7)8/h1-2H,(H2,6,7,8)",RKLQLYBJAZBSEU-UHFFFAOYSA-N,N[S](=O)(=O)c1sc(Cl)cc1,-3.295936368,0,1,G1,197.668,1.0489,40.7022,10,3,1,6,1,56,1,0,0,1,60.16,67.47569921,3.206829974,328.7817199
A-4975,N-(4-fluorophenyl)-2-hydroxy-N-propan-2-ylacetamide,"InChI=1S/C11H14FNO2/c1-8(2)13(11(15)7-14)10-5-3-9(12)4-6-10/h3-6,8,14H,7H2,1-2H3",RISGISSUGUGJMO-UHFFFAOYSA-N,CC(C)N(C(=O)CO)c1ccc(F)cc1,-1.178639899,0,1,G1,211.236,1.5594,56.1078,15,2,1,4,3,82,1,0,0,1,40.54,88.13723862,2.99048862,334.9460875
A-4979,dicopper hydroxide phosphate,"InChI=1S/2Cu.H3O4P.H2O/c;;1-5(2,3)4;/h;;(H3,1,2,3,4);1H2/q2*+2;;/p-4",WCMHCPWEQCWRSR-UHFFFAOYSA-J,[OH-].[Cu++].[Cu++].[O-][P]([O-])([O-])=O,-3.745054809,0,1,G1,239.069,-3.0064,9.5423,8,5,0,8,0,58,0,0,0,0,116.25,66.97861482,-2.67E-08,56.56425892
A-4980,prop-2-en-1-yl heptanoate,"InChI=1S/C10H18O2/c1-3-5-6-7-8-10(11)12-9-4-2/h4H,2-3,5-9H2,1H3",SJWKGDGUQTWDRV-UHFFFAOYSA-N,CCCCCCC(=O)OCC=C,-3.597623767,0,1,G1,170.252,2.686,49.915,12,2,0,2,7,70,0,0,0,0,26.3,74.60919435,3.134308384,129.8002691
A-4982,4-heptylphenol,"InChI=1S/C13H20O/c1-2-3-4-5-6-7-12-8-10-13(14)11-9-12/h8-11,14H,2-7H2,1H3",KNDDEFBFJLKPFE-UHFFFAOYSA-N,CCCCCCCc1ccc(O)cc1,-3.659701705,0,1,G1,192.302,3.9051,60.5698,14,1,1,1,6,78,1,0,0,1,20.23,86.78023167,2.150399394,237.917405
A-4984,(4-nonylphenoxy)acetic acid,"InChI=1S/C17H26O3/c1-2-3-4-5-6-7-8-9-15-10-12-16(13-11-15)20-14-17(18)19/h10-13H,2-9,14H2,1H3,(H,18,19)",NISAHDHKGPWBEM-UHFFFAOYSA-N,CCCCCCCCCc1ccc(OCC(O)=O)cc1,-3.84259676,0,1,G1,278.392,4.4431,81.2698,20,2,1,3,11,112,1,0,0,1,46.53,121.5150675,2.130499058,370.3264358
A-4985,"trizinc(2+) ion bis(2-hydroxypropane-1,2,3-tricarboxylate)","InChI=1S/2C6H8O7.3Zn/c2*7-3(8)1-6(13,5(11)12)2-4(9)10;;;/h2*13H,1-2H2,(H,7,8)(H,9,10)(H,11,12);;;/q;;3*+2/p-6",WGIWBXUNRXCYRA-UHFFFAOYSA-H,[Zn++].[Zn++].[Zn++].OC(CC([O-])=O)(CC([O-])=O)C([O-])=O.OC(CC([O-])=O)(CC([O-])=O)C([O-])=O,-2.254040258,0,1,G1,574.368,-10.5127,58.4096,29,14,2,17,10,148,0,0,0,0,281.24,199.7324322,-1.20E-07,520.6497731
A-4992,"5-(2-methylundecan-2-yldisulfanyl)-3H-1,3,4-thiadiazole-2-thione","InChI=1S/C14H26N2S4/c1-4-5-6-7-8-9-10-11-14(2,3)20-19-13-16-15-12(17)18-13/h4-11H2,1-3H3,(H,15,17)",UGMGEYBGNHXQQO-UHFFFAOYSA-N,CCCCCCCCCC(C)(C)SSC1=NNC(=S)S1,-3.988563911,0,1,G1,350.644,6.86029,97.4357,20,5,1,6,11,116,1,0,0,1,28.68,139.8637837,2.095917341,411.3064443
A-4993,"(4E)-3-methyl-5-(2,2,3-trimethylcyclopent-3-en-1-yl)pent-4-en-2-ol","InChI=1S/C14H24O/c1-10(12(3)15)6-8-13-9-7-11(2)14(13,4)5/h6-8,10,12-13,15H,9H2,1-5H3/b8-6-",RNLHVODSMDJCBR-VURMDHGXSA-N,CC(O)C(C)\C=C/C1CC=C(C)C1(C)C,-3.786028703,0,1,G1,208.345,3.5519,65.6298,15,1,1,1,3,86,0,0,1,1,20.23,93.89269505,2.622623104,271.0632877
A-4994,2-amino-3-hydroxypropanehydrazide hydrochloride,"InChI=1S/C3H9N3O2.ClH/c4-2(1-7)3(8)6-5;/h2,7H,1,4-5H2,(H,6,8);1H",JNWGUZKRVDKZBI-UHFFFAOYSA-N,[H+].[Cl-].NNC(=O)C(N)CO,0.510462812,0,1,G1,155.585,-5.5876,28.5033,9,4,4,6,2,56,0,0,0,0,101.37,60.26256233,-2.45E-07,93.81700155
A-4997,4-{1-[4-hydroxy-3-(prop-2-en-1-yl)phenyl]propyl}-2-(prop-2-en-1-yl)phenol,"InChI=1S/C21H24O2/c1-5-7-15-13-17(9-11-19(15)22)21(3,4)18-10-12-20(23)16(14-18)8-6-2/h5-6,9-14,22-23H,1-2,7-8H2,3-4H3",WOCGGVRGNIEDSZ-UHFFFAOYSA-N,CC(C)(c1ccc(O)c(CC=C)c1)c2ccc(O)c(CC=C)c2,-3.996383552,0,1,G1,308.421,4.8807,96.1436,23,2,2,2,6,120,2,0,0,2,40.46,137.9822378,2.48722313,665.116583
A-4998,"[2-methyl-2-(2-methylpropyl)-1,3-dioxolan-4-yl]methanol","InChI=1S/C9H18O3/c1-7(2)4-9(3)11-6-8(5-10)12-9/h7-8,10H,4-6H2,1-3H3",DFDWGIZZMBNYBV-UHFFFAOYSA-N,CC(C)CC1(C)OCC(CO)O1,-0.705980377,0,1,G1,174.24,1.1564,45.7708,12,3,1,3,3,72,0,1,1,1,38.69,73.674281,2.409236644,146.7090741
A-4999,Sulfur hexafluoride,"InChI=1S/F6S/c1-7(2,3,4,5)6",SFZCNBIFKDRMGX-UHFFFAOYSA-N,F[S](F)(F)(F)(F)F,-3.673154735,0,1,G1,146.055,3.1694,14.239,7,0,0,7,0,48,0,0,0,0,0,35.13578706,4.431293675,62.74506838
A-5000,tris(6-methylheptyl)amine,"InChI=1S/C24H51N/c1-22(2)16-10-7-13-19-25(20-14-8-11-17-23(3)4)21-15-9-12-18-24(5)6/h22-24H,7-21H2,1-6H3",YKGBNAGNNUEZQC-UHFFFAOYSA-N,CC(C)CCCCCN(CCCCCC(C)C)CCCCCC(C)C,-4.05724758,0.336495581,2,G3,353.679,7.9376,116.358,25,1,0,1,18,152,0,0,0,0,3.24,160.8927533,3.872447673,214.0272423
A-5003,1-benzyl-N-phenylpiperidin-4-amine,"InChI=1S/C18H22N2/c1-3-7-16(8-4-1)15-20-13-11-18(12-14-20)19-17-9-5-2-6-10-17/h1-10,18-19H,11-15H2",FSXGJIFBTBJMHV-UHFFFAOYSA-N,C1CN(CCC1Nc2ccccc2)Cc3ccccc3,-3.954222946,0,1,G1,266.388,3.7631,84.8057,20,2,1,2,4,104,2,1,1,3,15.27,120.9820147,1.47429254,451.956136
A-5004,"4-bromo-2,2-diphenylbutanoic acid","InChI=1S/C16H15BrO2/c17-12-11-16(15(18)19,13-7-3-1-4-8-13)14-9-5-2-6-10-14/h1-10H,11-12H2,(H,18,19)",GFIYIIRFIODLLU-UHFFFAOYSA-N,OC(=O)C(CCBr)(c1ccccc1)c2ccccc2,-4.069491258,0,1,G1,319.198,3.8423,79.7108,19,1,1,3,5,98,2,0,0,2,37.3,120.7715692,2.646827327,497.6900958
A-5005,Aldadiene,"InChI=1S/C22H28O3/c1-20-9-5-15(23)13-14(20)3-4-16-17(20)6-10-21(2)18(16)7-11-22(21)12-8-19(24)25-22/h3-4,13,16-18H,5-12H2,1-2H3",UJVLDDZCTMKXJK-UHFFFAOYSA-N,CC12CCC(=O)C=C1C=CC3C2CCC4(C)C3CCC45CCC(=O)O5,-4.100706158,0,1,G1,340.463,4.3701,94.673,25,3,0,3,0,134,0,3,5,5,43.37,149.431263,1.534690869,718.7839768
A-5006,disodium 4-[[(Z)-octadec-9-enyl]amino]-4-oxo-2-sulfonatobutanoate,"InChI=1S/C22H41NO6S.2Na/c1-2-3-4-5-6-7-8-9-10-11-12-13-14-15-16-17-18-23-21(24)19-20(22(25)26)30(27,28)29;;/h9-10,20H,2-8,11-19H2,1H3,(H,23,24)(H,25,26)(H,27,28,29);;/q;2*+1/p-2/b10-9-;;",PLHAFYWVSVUQCQ-XXAVUKJNSA-L,[Na+].[Na+].CCCCCCCC\C=C/CCCCCCCCNC(=O)CC(C([O-])=O)[S]([O-])(=O)=O,-0.019515783,0,1,G1,491.602,-2.7981,115.5709,32,6,1,10,20,176,0,0,0,0,126.43,238.8360078,-4.20E-06,599.2284601
A-5007,"2,2,3,3,4,4,5,5-octafluoropentyl 2-methylprop-2-enoate","InChI=1S/C9H8F8O2/c1-4(2)5(18)19-3-7(12,13)9(16,17)8(14,15)6(10)11/h6H,1,3H2,2H3",ZNJXRXXJPIFFAO-UHFFFAOYSA-N,CC(=C)C(=O)OCC(F)(F)C(F)(F)C(F)(F)C(F)F,-4.045967349,0.097142779,4,G5,300.145,3.2767,46.618,19,2,0,10,6,112,0,0,0,0,26.3,101.5685355,5.078538187,363.2311089
A-5010,"6,6-dimethylheptanoic acid","InChI=1S/C9H18O2/c1-9(2,3)7-5-4-6-8(10)11/h4-7H2,1-3H3,(H,10,11)",AAOISIQFPPAFQO-UHFFFAOYSA-N,CC(C)(C)CCCCC(O)=O,-2.475043149,0.853543947,2,G2,158.241,2.6775,45.5588,11,1,1,2,4,66,0,0,0,0,37.3,68.6145438,3.219082838,122.0146478
A-5012,1-(methoxymethyl)-4-[4-(methoxymethyl)phenyl]benzene,"InChI=1S/C16H18O2/c1-17-11-13-3-7-15(8-4-13)16-9-5-14(6-10-16)12-18-2/h3-10H,11-12H2,1-2H3",MODAACUAXYPNJH-UHFFFAOYSA-N,COCc1ccc(cc1)c2ccc(COC)cc2,-4.002368633,0,1,G1,242.318,3.6464,73.304,18,2,0,2,5,94,2,0,0,2,18.46,108.1753562,2.14735141,423.9550765
A-5013,1-[({[(tetradecyloxy)carbonyl]peroxy}carbonyl)oxy]tetradecane,"InChI=1S/C30H58O6/c1-3-5-7-9-11-13-15-17-19-21-23-25-27-33-29(31)35-36-30(32)34-28-26-24-22-20-18-16-14-12-10-8-6-4-2/h3-28H2,1-2H3",CSKKAINPUYTTRW-UHFFFAOYSA-N,CCCCCCCCCCCCCCOC(=O)OOC(=O)OCCCCCCCCCCCCCC,-4.349900579,0.014603636,2,G3,514.788,10.61,147.022,36,6,0,6,26,214,0,0,0,0,71.06,222.0290928,3.281560216,426.3554707
A-5014,sulfanylideneiron,InChI=1S/Fe.S,MBMLMWLHJBBADN-UHFFFAOYSA-N,S=[Fe],-3.621828866,0,1,G1,87.912,0.6457,7.591,2,1,0,2,0,14,0,0,0,0,0,25.52856374,2,2
A-5015,Dicyclopentadiene,"InChI=1S/C10H12/c1-2-9-7-4-5-8(6-7)10(9)3-1/h1-2,4-5,7-10H,3,6H2",HECLRDQVFMWTQS-UHFFFAOYSA-N,C1C=CC2C3CC(C=C3)C12,-3.82022117,0,1,G1,132.206,2.3846,41.474,10,0,0,0,0,52,0,1,3,3,0,61.62703053,2.038964408,212.0782
A-5016,"6,10-dimethylundecan-2-one","InChI=1S/C13H26O/c1-11(2)7-5-8-12(3)9-6-10-13(4)14/h11-12H,5-10H2,1-4H3",RBGLEUBCAJNCTR-UHFFFAOYSA-N,CC(C)CCCC(C)CCCC(C)=O,-4.005176134,0,1,G1,198.35,4.2081,62.385,14,1,0,1,8,84,0,0,0,0,17.07,89.2800785,3.274850968,149.3145526
A-5018,cyclooctene,"InChI=1S/C8H14/c1-2-4-6-8-7-5-3-1/h1-2H,3-8H2/b2-1-",URYYVOIYTNXXBN-UPHRSURJSA-N,C1CCC\C=C/CC1,-3.770339988,0.621910565,3,G4,110.2,2.8968,36.842,8,0,0,0,0,46,0,0,1,1,0,51.59841164,2.172380198,62.10749561
A-5019,[disulfanediylbis(carbonothioylnitrilo)]tetramethane,InChI=1S/C6H12N2S4/c1-7(2)5(9)11-12-6(10)8(3)4/h1-4H3,KUAZQDVKQLNFPE-UHFFFAOYSA-N,CN(C)C(=S)SSC(=S)N(C)C,-4.116196121,0.110184809,3,G5,240.444,2.0608,67.752,12,4,0,6,0,70,0,0,0,0,6.48,92.44737157,3.693483087,158.3868988
A-5021,dimethoxy(2-methylpropyl)propan-2-ylsilane,"InChI=1S/C9H22O2Si/c1-8(2)7-12(10-5,11-6)9(3)4/h8-9H,7H2,1-6H3",XFAOZKNGVLIXLC-UHFFFAOYSA-N,CO[Si](CC(C)C)(OC)C(C)C,-4.02430091,0,1,G1,190.359,2.7874,54.515,12,2,0,3,5,74,0,0,0,0,18.46,77.51352271,4.352707463,119.6969429
A-5022,"tetrakis(1,2,2,6,6-pentamethylpiperidin-4-yl) butane-1,2,3,4-tetracarboxylate","InChI=1S/C48H86N4O8/c1-41(2)23-31(24-42(3,4)49(41)17)57-37(53)21-35(39(55)59-33-27-45(9,10)51(19)46(11,12)28-33)36(40(56)60-34-29-47(13,14)52(20)48(15,16)30-34)22-38(54)58-32-25-43(5,6)50(18)44(7,8)26-32/h31-36H,21-30H2,1-20H3",WUPCFMITFBVJMS-UHFFFAOYSA-N,CN1C(C)(C)CC(CC1(C)C)OC(=O)CC(C(CC(=O)OC2CC(C)(C)N(C)C(C)(C)C2)C(=O)OC3CC(C)(C)N(C)C(C)(C)C3)C(=O)OC4CC(C)(C)N(C)C(C)(C)C4,-4.672731896,0,1,G1,847.236,7.7774,236.354,60,12,0,12,11,346,0,4,4,4,118.16,364.0078098,1.718310904,1409.386827
A-5025,piperidine-4-carboxylic acid hydrochloride,"InChI=1S/C6H11NO2.ClH/c8-6(9)5-1-3-7-4-2-5;/h5,7H,1-4H2,(H,8,9);1H",NVUYWKBRSRPYMH-UHFFFAOYSA-N,[H+].[Cl-].OC(=O)C1CCNCC1,0.384031592,0,1,G1,165.62,-2.8129,34.3415,10,2,2,4,1,60,0,1,1,1,49.33,67.7016401,0,117.1499106