ID,Name,InChI,InChIKey,SMILES,Solubility,SD,Ocurrences,Group,MolWt,MolLogP,MolMR,HeavyAtomCount,NumHAcceptors,NumHDonors,NumHeteroatoms,NumRotatableBonds,NumValenceElectrons,NumAromaticRings,NumSaturatedRings,NumAliphaticRings,RingCount,TPSA,LabuteASA,BalabanJ,BertzCT
A-2592,"1,4-xylene 4-(methoxycarbonyl)benzoic acid 4-methylbenzoic acid benzoic acid 1,2,4-trimethyl benzene-1,2,4-tricarboxylate 1,2-dimethyl 4-methylbenzene-1,2-dicarboxylate 1,2-dimethyl benzene-1,2-dicarboxylate 1,3-dimethyl benzene-1,3-dicarboxylate 1,4-dimethyl 2-[4-(methoxycarbonyl)phenyl]benzene-1,4-dicarboxylate 1,4-dimethyl benzene-1,4-dicarboxylate 1-[4-(methoxycarbonyl)phenyl]methyl 4-methyl benzene-1,4-dicarboxylate 1-methyl 4-(4-methylphenyl)methyl benzene-1,4-dicarboxylate 2,6-dimethyl 9-oxo-9H-fluorene-2,6-dicarboxylate [4-(methoxycarbonyl)phenyl]methyl 4-methylbenzoate methyl 1-methyl-6-oxo-6H-benzo[c]chromene-4-carboxylate methyl 2-[4-(methoxycarbonyl)phenyl]-4-methylbenzoate methyl 2-[4-(methoxycarbonyl)phenyl]benzoate methyl 3-[4-(methoxycarbonyl)phenyl]benzoate methyl 4-(dimethoxymethyl)benzoate methyl 4-(hydroxymethyl)benzoate methyl 4-[4-(methoxycarbonyl)phenyl]benzoate methyl 4-formylbenzoate methyl 4-methylbenzoate methyl benzoate","InChI=1S/2C18H16O6.C17H12O5.3C17H16O4.C16H12O4.3C16H14O4.C12H12O6.C11H14O4.C11H12O4.3C10H10O4.C9H8O4.C9H10O3.C9H8O3.C9H10O2.2C8H8O2.C8H10.C7H6O2/c1-22-16(19)12-6-4-11(5-7-12)15-10-13(17(20)23-2)8-9-14(15)18(21)24-3;1-22-16(19)13-5-3-12(4-6-13)11-24-18(21)15-9-7-14(8-10-15)17(20)23-2;1-21-16(19)9-4-6-12-13(7-9)11-5-3-10(17(20)22-2)8-14(11)15(12)18;1-11-4-9-14(17(19)21-3)15(10-11)12-5-7-13(8-6-12)16(18)20-2;1-12-3-7-15(8-4-12)17(19)21-11-13-5-9-14(10-6-13)16(18)20-2;1-12-3-5-13(6-4-12)11-21-17(19)15-9-7-14(8-10-15)16(18)20-2;1-9-7-8-12(15(17)19-2)14-13(9)10-5-3-4-6-11(10)16(18)20-14;1-19-15(17)13-7-3-11(4-8-13)12-5-9-14(10-6-12)16(18)20-2;1-19-15(17)12-8-6-11(7-9-12)13-4-3-5-14(10-13)16(18)20-2;1-19-15(17)12-9-7-11(8-10-12)13-5-3-4-6-14(13)16(18)20-2;1-16-10(13)7-4-5-8(11(14)17-2)9(6-7)12(15)18-3;1-13-10(12)8-4-6-9(7-5-8)11(14-2)15-3;1-7-4-5-8(10(12)14-2)9(6-7)11(13)15-3;1-13-9(11)7-3-5-8(6-4-7)10(12)14-2;1-13-9(11)7-4-3-5-8(6-7)10(12)14-2;1-13-9(11)7-5-3-4-6-8(7)10(12)14-2;1-13-9(12)7-4-2-6(3-5-7)8(10)11;2*1-12-9(11)8-4-2-7(6-10)3-5-8;1-7-3-5-8(6-4-7)9(10)11-2;1-6-2-4-7(5-3-6)8(9)10;1-10-8(9)7-5-3-2-4-6-7;1-7-3-5-8(2)6-4-7;8-7(9)6-4-2-1-3-5-6/h4-10H,1-3H3;3-10H,11H2,1-2H3;3-8H,1-2H3;4-10H,1-3H3;2*3-10H,11H2,1-2H3;3-8H,1-2H3;3*3-10H,1-2H3;4-6H,1-3H3;4-7,11H,1-3H3;4-6H,1-3H3;3*3-6H,1-2H3;2-5H,1H3,(H,10,11);2-5,10H,6H2,1H3;2-6H,1H3;3-6H,1-2H3;2-5H,1H3,(H,9,10);2-6H,1H3;3-6H,1-2H3;1-5H,(H,8,9)",DERNUBFICIQBEP-UHFFFAOYSA-N,COC(OC)c1ccc(cc1)C(=O)OC.COC(=O)c2ccccc2.COC(=O)c3ccc(C)cc3.COC(=O)c4ccc(CO)cc4.COC(=O)c5ccc(COC(=O)c6ccc(C)cc6)cc5.COC(=O)c7ccc(COC(=O)c8ccc(cc8)C(=O)OC)cc7.COC(=O)c9ccc(C=O)cc9.COC(=O)c%10ccc(cc%10)C(O)=O.COC(=O)c%11ccc(cc%11)C(=O)OC.COC(=O)c%12ccc(cc%12)C(=O)OCc%13ccc(C)cc%13.COC(=O)c%14ccc(cc%14)c%15ccc(cc%15)C(=O)OC.COC(=O)c%16ccc(cc%16)c%17cccc(c%17)C(=O)OC.COC(=O)c%18ccc(cc%18)c%19ccccc%19C(=O)OC.COC(=O)c%20ccc(cc%20)c%21cc(C)ccc%21C(=O)OC.COC(=O)c%22ccc(cc%22)c%23cc(ccc%23C(=O)OC)C(=O)OC.COC(=O)c%24cccc(c%24)C(=O)OC.COC(=O)c%25ccc(C(=O)OC)c(c%25)C(=O)OC.COC(=O)c%26ccc%27c(c%26)C(=O)c%28ccc(cc%27%28)C(=O)OC.COC(=O)c%29ccc(C)c%30c%29OC(=O)c%31ccccc%30%31.COC(=O)c%32ccccc%32C(=O)OC.COC(=O)c%33ccc(C)cc%33C(=O)OC.Cc%34ccc(C)cc%34.Cc%35ccc(cc%35)C(O)=O.OC(=O)c%36ccccc%36,-6.731677773,0,1,G1,5299.456,49.35298,1419.3517,388,86,4,89,57,2012,35,0,1,36,1214.34,2230.685124,3.09E-07,20720.26771
A-2593,"2-[3-(heptan-3-yl)-1,2-oxazolidin-2-yl]ethyl N-{6-[({2-[3-(heptan-3-yl)-1,2-oxazolidin-2-yl]ethoxy}carbonyl)amino]hexyl}carbamate","InChI=1S/C32H62N4O6/c1-5-9-15-27(7-3)29-17-23-41-35(29)21-25-39-31(37)33-19-13-11-12-14-20-34-32(38)40-26-22-36-30(18-24-42-36)28(8-4)16-10-6-2/h27-30H,5-26H2,1-4H3,(H,33,37)(H,34,38)",BDNIMOQMOANQMV-UHFFFAOYSA-N,CCCCC(CC)C1CCON1CCOC(=O)NCCCCCCNC(=O)OCCN2OCCC2C(CC)CCCC,-5.790560824,0,1,G1,598.87,6.4438,165.9074,42,8,2,10,23,246,0,2,2,2,101.6,255.3454881,1.434774981,656.4933522
A-2594,methyl 3-[3-(benzotriazol-2-yl)-5-tert-butyl-4-hydroxyphenyl]propanoate,"InChI=1S/C20H23N3O3/c1-20(2,3)14-11-13(9-10-18(24)26-4)12-17(19(14)25)23-21-15-7-5-6-8-16(15)22-23/h5-8,11-12,25H,9-10H2,1-4H3",UJRDRFZCRQNLJM-UHFFFAOYSA-N,COC(=O)CCc1cc(n2nc3ccccc3n2)c(O)c(c1)C(C)(C)C,-6.849323576,0,1,G1,353.422,3.5292,99.5668,26,6,1,6,4,136,3,0,0,3,77.24,151.9543349,2.11137763,921.5800773
A-2595,3-octadecyl-1-[4-({4-[(octadecylcarbamoyl)amino]phenyl}methyl)phenyl]urea,"InChI=1S/C51H88N4O2/c1-3-5-7-9-11-13-15-17-19-21-23-25-27-29-31-33-43-52-50(56)54-48-39-35-46(36-40-48)45-47-37-41-49(42-38-47)55-51(57)53-44-34-32-30-28-26-24-22-20-18-16-14-12-10-8-6-4-2/h35-42H,3-34,43-45H2,1-2H3,(H2,52,54,56)(H2,53,55,57)",IHBLBMDDUQOYLA-UHFFFAOYSA-N,CCCCCCCCCCCCCCCCCCNC(=O)Nc1ccc(Cc2ccc(NC(=O)NCCCCCCCCCCCCCCCCCC)cc2)cc1,-5.942994641,0,1,G1,789.291,16.0434,248.8248,57,2,4,6,38,324,2,0,0,2,82.26,351.2437327,1.407917132,1105.205
A-2596,"2,5,7,8-tetramethyl-2-(4,8,12-trimethyltridecyl)-3,4-dihydro-2H-1-benzopyran-6-yl acetate","InChI=1S/C31H52O3/c1-21(2)13-10-14-22(3)15-11-16-23(4)17-12-19-31(9)20-18-28-26(7)29(33-27(8)32)24(5)25(6)30(28)34-31/h21-23H,10-20H2,1-9H3/t22-,23-,31-/m1/s1",ZAKOWWREFLAJOT-CEFNRUSXSA-N,CC(C)CCC[C@@H](C)CCC[C@@H](C)CCC[C@]1(C)CCc2c(C)c(OC(C)=O)c(C)c(C)c2O1,-5.771545225,0,1,G1,472.754,9.05996,144.035,34,3,0,3,13,194,1,0,1,2,35.53,209.9377374,1.821205409,809.6304804
A-2597,"1,4-bis(iodomethyl)cyclohexane","InChI=1S/C8H14I2/c9-5-7-1-2-8(6-10)4-3-7/h7-8H,1-6H2",CADHELUGADNHSF-UHFFFAOYSA-N,ICC1CCC(CI)CC1,-5.748197572,0,1,G1,364.008,3.6628,63.222,10,0,0,2,2,60,0,1,1,1,0,90.81169092,2.173831978,73.25838097
A-2598,"[1,3(or 1,4)-phenylenebis(1-methylethylidene)]bis[tert-butyl] peroxide","InChI=1S/C20H34O4/c1-17(2,3)21-23-19(7,8)15-11-13-16(14-12-15)20(9,10)24-22-18(4,5)6/h11-14H,1-10H3",GWQOYRSARAWVTC-UHFFFAOYSA-N,CC(C)(C)OOC(C)(C)c1ccc(cc1)C(C)(C)OOC(C)(C)C,-5.737151587,0.595165849,2,G2,338.488,5.6502,96.34,24,4,0,4,6,138,1,0,0,1,36.92,146.8533643,2.838413555,467.0552097
A-2599,Boehmite (Al(OH)O),InChI=1S/Al.H2O.O/h;1H2;/q+3;;-2/p-1,VXAUWWUXCIMFIM-UHFFFAOYSA-M,[OH-].[O--].[Al+3],-5.025247952,0,1,G1,59.988,-0.6764,8.3763,3,1,0,3,0,16,0,0,0,0,58.5,29.20349761,0,2.754887502
A-2601,"1,1'-disulfanediyldioctadecane","InChI=1S/C36H74S2/c1-3-5-7-9-11-13-15-17-19-21-23-25-27-29-31-33-35-37-38-36-34-32-30-28-26-24-22-20-18-16-14-12-10-8-6-4-2/h3-36H2,1-2H3",MQQKTNDBASEZSD-UHFFFAOYSA-N,CCCCCCCCCCCCCCCCCCSSCCCCCCCCCCCCCCCCCC,-6.057758885,0,1,G1,571.122,14.8908,184.008,38,2,0,2,35,230,0,0,0,0,0,251.1584072,3.007734982,347.5385456
A-2602,2-decyltetradecanoic acid,"InChI=1S/C24H48O2/c1-3-5-7-9-11-13-14-16-18-20-22-23(24(25)26)21-19-17-15-12-10-8-6-4-2/h23H,3-22H2,1-2H3,(H,25,26)",OYXVDHZABMXCMX-UHFFFAOYSA-N,CCCCCCCCCCCCC(CCCCCCCCCC)C(O)=O,-5.867639522,0,1,G1,368.646,8.529,114.8138,26,1,1,2,21,156,0,0,0,0,37.3,164.0886755,3.46261279,287.9352304
A-2604,ZIRCONIUM,InChI=1S/Zr,QCWXUUIWCKQGHC-UHFFFAOYSA-N,[Zr],-5.35804912,2.888526172,3,G4,91.224,-0.0025,0,1,0,0,1,0,4,0,0,0,0,0,26.61673535,0,0
A-2605,"2,2,4,6,6-pentamethyl-4-[(trimethylsilyl)oxy]-3,5-dioxa-2,4,6-trisilaheptane","InChI=1S/C10H30O3Si4/c1-14(2,3)11-17(10,12-15(4,5)6)13-16(7,8)9/h1-10H3",RGMZNZABJYWAEC-UHFFFAOYSA-N,C[Si](C)(C)O[Si](C)(O[Si](C)(C)C)O[Si](C)(C)C,-5.936026172,0,1,G1,310.691,4.1096,84.911,17,3,0,7,6,104,0,0,0,0,27.69,111.6282859,4.947050652,208.9533124
A-2606,N-(2-ethoxyphenyl)-N'-[4-(10-methylundecyl)phenyl]ethanediamide,"InChI=1S/C28H40N2O3/c1-4-33-26-17-13-12-16-25(26)30-28(32)27(31)29-24-20-18-23(19-21-24)15-11-9-7-5-6-8-10-14-22(2)3/h12-13,16-22H,4-11,14-15H2,1-3H3,(H,29,31)(H,30,32)",PIPJHDJQUXGVNR-UHFFFAOYSA-N,CCOc1ccccc1NC(=O)C(=O)Nc2ccc(CCCCCCCCCC(C)C)cc2,-6.09944947,0,1,G1,452.639,6.9818,136.7904,33,3,2,5,14,180,2,0,0,2,67.43,198.863885,1.669063773,846.4759255
A-2607,Silicon nitride,"InChI=1S/N4Si3/c1-5-2-6(1)3(5)7(1,2)4(5)6",HQVNEWCFYHHQES-UHFFFAOYSA-N,N12[Si]34N5[Si]16N3[Si]25N46,-5.669893078,0,1,G1,140.286,-2.4172,24.618,7,4,0,7,0,32,0,13,13,13,12.96,42.48102801,2.424366107,183.2318327
A-2608,"2-ethylhexyl 3,5,5-trimethylhexanoate","InChI=1S/C17H34O2/c1-7-9-10-15(8-2)13-19-16(18)11-14(3)12-17(4,5)6/h14-15H,7-13H2,1-6H3",LCVHZNSIAYNAGX-UHFFFAOYSA-N,CCCCC(CC)COC(=O)CC(C)CC(C)(C)C,-5.954976972,1.238560627,2,G2,270.457,5.2084,82.118,19,2,0,2,9,114,0,0,0,0,26.3,119.8533922,3.90128356,240.1368448
A-2609,calcium titanium trioxide,InChI=1S/Ca.3O.Ti/q+2;3*-2;+4,WEUCVIBPSSMHJG-UHFFFAOYSA-N,[O--].[O--].[O--].[Ca++].[Ti+4],-5.6562324,0,1,G1,135.942,-0.7397,7.8135,5,0,0,5,0,24,0,0,0,0,85.5,74.93263965,0,6.854752972
A-2610,"heptyl 3-[3-(2H-1,2,3-benzotriazol-2-yl)-5-tert-butyl-4-hydroxyphenyl]propanoate nonyl 3-[3-(2H-1,2,3-benzotriazol-2-yl)-5-tert-butyl-4-hydroxyphenyl]propanoate octyl 3-[3-(2H-1,2,3-benzotriazol-2-yl)-5-tert-butyl-4-hydroxyphenyl]propanoate","InChI=1S/C26H35N3O3/c1-6-18(2)10-9-15-32-24(30)14-13-19-16-20(26(3,4)5)25(31)23(17-19)29-27-21-11-7-8-12-22(21)28-29/h7-8,11-12,16-18,31H,6,9-10,13-15H2,1-5H3",HMILXGPZMQDAKE-UHFFFAOYSA-N,CCC(C)CCCOC(=O)CCc1cc(n2nc3ccccc3n2)c(O)c(c1)C(C)(C)C,-6.163940179,0.610924375,2,G2,437.584,5.7257,127.1988,32,6,1,6,9,172,3,0,0,3,77.24,190.1439875,1.773456466,1032.854618
A-2613,dicalcium (phosphonatooxy)phosphonate,"InChI=1S/2Ca.H4O7P2/c;;1-8(2,3)7-9(4,5)6/h;;(H2,1,2,3)(H2,4,5,6)/q2*+2;/p-4",JUNWLZAGQLJVLR-UHFFFAOYSA-J,[Ca++].[Ca++].[O-][P]([O-])(=O)O[P]([O-])([O-])=O,-5.998459357,0,1,G1,254.097,-4.1012,27.806,11,7,0,11,2,56,0,0,0,0,135.61,121.9955465,-3.20E-07,154.8795951
A-2614,"4-[(4-hydroxy-9,10-dioxo-9,10-dihydroanthracen-1-yl)amino]phenyl methanesulfonate","InChI=1S/C21H15NO6S/c1-29(26,27)28-13-8-6-12(7-9-13)22-16-10-11-17(23)19-18(16)20(24)14-4-2-3-5-15(14)21(19)25/h2-11,22-23H,1H3",NTZOUXAZCADJBZ-UHFFFAOYSA-N,C[S](=O)(=O)Oc1ccc(Nc2ccc(O)c3C(=O)c4ccccc4C(=O)c23)cc1,-6.214227985,0,1,G1,409.419,3.2496,106.6103,29,7,2,8,4,146,3,0,1,4,109.77,166.2496743,1.737767231,1262.828863
A-2615,"nickel(2+) ion butan-1-amine 2-{[2-oxido-5-(2,4,4-trimethylpentan-2-yl)phenyl]sulfanyl}-4-(2,4,4-trimethylpentan-2-yl)benzen-1-olate","InChI=1S/C28H42O2S.C4H11N.Ni/c1-25(2,3)17-27(7,8)19-11-13-21(29)23(15-19)31-24-16-20(12-14-22(24)30)28(9,10)18-26(4,5)6;1-2-3-4-5;/h11-16,29-30H,17-18H2,1-10H3;2-5H2,1H3;/q;;+2/p-2",DPLLDVMBMPQDCO-UHFFFAOYSA-L,[Ni++].CCCCN.CC(C)(C)CC(C)(C)c1ccc([O-])c(Sc2cc(ccc2[O-])C(C)(C)CC(C)(C)C)c1,-6.446040594,0,1,G1,572.525,8.1553,154.0574,37,4,1,5,8,212,2,0,0,2,72.14,241.8913916,1.96E-06,894.2289831
A-2617,4-(2-{3-[2-(4-hydroxyphenyl)propan-2-yl]phenyl}propan-2-yl)phenol,"InChI=1S/C24H26O2/c1-17(21-6-10-23(25)11-7-21)14-19-4-3-5-20(16-19)15-18(2)22-8-12-24(26)13-9-22/h3-13,16-18,25-26H,14-15H2,1-2H3",KOWHWSRFLBFYRR-UHFFFAOYSA-N,CC(Cc1cccc(CC(C)c2ccc(O)cc2)c1)c3ccc(O)cc3,-6.23863564,0,1,G1,346.47,5.7902,106.8936,26,2,2,2,6,134,3,0,0,3,40.46,155.3237117,1.672361507,766.0944274
A-2618,N-(3-methylphenyl)-4-{4-[(3-methylphenyl)(phenyl)amino]phenyl}-N-phenylaniline,"InChI=1S/C38H32N2/c1-29-11-9-17-37(27-29)39(33-13-5-3-6-14-33)35-23-19-31(20-24-35)32-21-25-36(26-22-32)40(34-15-7-4-8-16-34)38-18-10-12-30(2)28-38/h3-28H,1-2H3",OGGKVJMNFFSDEV-UHFFFAOYSA-N,Cc1cccc(c1)N(c2ccccc2)c3ccc(cc3)c4ccc(cc4)N(c5ccccc5)c6cccc(C)c6,-6.41219838,0,1,G1,516.688,10.91004,170.718,40,2,0,2,7,194,6,0,0,6,6.48,236.9664257,1.320848683,1559.029549
A-2619,N-methyl-N-phenyl{[methyl(phenyl)carbamothioyl]disulfanyl}carbothioamide,"InChI=1S/C16H16N2S4/c1-17(13-9-5-3-6-10-13)15(19)21-22-16(20)18(2)14-11-7-4-8-12-14/h3-12H,1-2H3",RDQQCSOIXMZZQR-UHFFFAOYSA-N,CN(C(=S)SSC(=S)N(C)c1ccccc1)c2ccccc2,-6.260769992,2.150514998,2,G2,364.586,5.2104,110.068,22,4,0,6,2,114,2,0,0,2,6.48,149.8316758,1.894686683,573.6087702
A-2620,"N-{2-[(2-cyano-4,6-dinitrophenyl)diazenyl]-5-(diethylamino)phenyl}acetamide","InChI=1S/C19H19N7O5/c1-4-24(5-2)14-6-7-16(17(9-14)21-12(3)27)22-23-19-13(11-20)8-15(25(28)29)10-18(19)26(30)31/h6-10H,4-5H2,1-3H3,(H,21,27)",NHBNDXGKNAEBAI-UHFFFAOYSA-N,CCN(CC)c1ccc(N=Nc2c(cc(cc2[N+]([O-])=O)[N+]([O-])=O)C#N)c(NC(C)=O)c1,-6.327772594,0,1,G1,425.405,4.59468,112.9485,31,9,1,12,8,160,2,0,0,2,167.13,176.6596191,2.607329141,1103.555989
A-2621,"Phenol, 4-methyl-, reaction products with dicyclopentadiene and isobutylene","InChI=1S/C10H12.C7H8O.C4H8/c1-2-9-7-4-5-8(6-7)10(9)3-1;1-6-2-4-7(8)5-3-6;1-4(2)3/h1-2,4-5,7-10H,3,6H2;2-5,8H,1H3;1H2,2-3H3",UQQYHXZNSYZMEN-UHFFFAOYSA-N,CC(C)=C.Cc1ccc(O)cc1.C2C=CC3C4CC(C=C4)C23,-6.170927319,0.650514998,2,G2,296.454,5.66762,94.8058,22,1,1,1,0,118,1,1,3,4,20.23,134.6251283,1.33E-07,524.7748017
A-2622,"Sorbitan monolaurate, ethoxylated","InChI=1S/C26H50O10/c1-2-3-4-5-6-7-8-9-10-11-24(30)34-19-18-31-20-22(32-15-12-27)26-25(35-17-14-29)23(21-36-26)33-16-13-28/h22-23,25-29H,2-21H2,1H3",HMFKFHLTUCJZJO-UHFFFAOYSA-N,CCCCCCCCCCCC(=O)OCCOCC(OCCO)C1OCC(OCCO)C1OCCO,-6.417202563,0,1,G1,522.676,1.9984,133.8394,36,10,3,10,25,214,0,1,1,1,133.14,216.0824675,2.267923922,507.1165689
A-2623,16-methylheptadecan-1-ol,"InChI=1S/C18H38O/c1-18(2)16-14-12-10-8-6-4-3-5-7-9-11-13-15-17-19/h18-19H,3-17H2,1-2H3",WNWHHMBRJJOGFJ-UHFFFAOYSA-N,CC(C)CCCCCCCCCCCCCCCO,-6.256077616,0,1,G1,270.501,6.0961,86.5618,19,1,1,1,15,116,0,0,0,0,20.23,121.7375007,2.914073356,153.7692728
A-2624,"2,3-bis(acetyloxy)propyl dodecanoate","InChI=1S/C19H34O6/c1-4-5-6-7-8-9-10-11-12-13-19(22)24-15-18(25-17(3)21)14-23-16(2)20/h18H,4-15H2,1-3H3",NBMAHNZMRSQCPG-UHFFFAOYSA-N,CCCCCCCCCCCC(=O)OCC(COC(C)=O)OC(C)=O,-6.378367614,0,1,G1,358.475,3.9453,94.99,25,6,0,6,15,146,0,0,0,0,78.9,151.1334111,3.70445751,380.1106071
A-2625,"2-Butenedioic acid (E)-, di-C12-18-alkyl esters","InChI=1S/C34H64O4/c1-3-5-7-9-11-13-15-17-19-21-23-25-27-31-37-33(35)29-30-34(36)38-32-28-26-24-22-20-18-16-14-12-10-8-6-4-2/h29-30H,3-28,31-32H2,1-2H3/b30-29+",CUKXIDNDOQQWQN-QVIHXGFCSA-N,CCCCCCCCCCCCCCCOC(=O)/C=C/C(=O)OCCCCCCCCCCCCCCC,-6.553787585,0,1,G1,536.882,10.8114,162.448,38,4,0,4,30,224,0,0,0,0,52.6,236.6428724,3.354305689,482.578861
A-2626,"2-Butenedioic acid (E)-, di-C8-18-alkyl esters","InChI=1S/C20H36O4/c1-3-5-7-9-11-13-17-23-19(21)15-16-20(22)24-18-14-12-10-8-6-4-2/h15-16H,3-14,17-18H2,1-2H3/b16-15+",TVWTZAGVNBPXHU-FOCLMDBBSA-N,CCCCCCCCOC(=O)\C=C\C(=O)OCCCCCCCC,-6.356030959,0,1,G1,340.504,5.35,97.81,24,4,0,4,16,140,0,0,0,0,52.6,147.5336828,3.478885678,304.53055
A-2627,bis(4-isocyanatophenyl) [(4-isocyanatophenyl)sulfanyl]phosphonate,"InChI=1S/C21H12N3O6PS/c25-13-22-16-1-7-19(8-2-16)28-31(32,29-20-9-3-17(4-10-20)23-14-26)30-21-11-5-18(6-12-21)24-15-27/h1-12H",KGLSETWPYVUTQX-UHFFFAOYSA-N,O=C=Nc1ccc(O[P](=S)(Oc2ccc(cc2)N=C=O)Oc3ccc(cc3)N=C=O)cc1,-6.491719256,0,1,G1,465.383,5.3498,118.8395,32,10,0,11,9,158,3,0,0,3,115.98,186.5315154,1.886157932,1116.142647
A-2628,bis(8-methylnonyl) but-2-enedioate,"InChI=1S/C24H44O4/c1-21(2)15-11-7-5-9-13-19-27-23(25)17-18-24(26)28-20-14-10-6-8-12-16-22(3)4/h17-18,21-22H,5-16,19-20H2,1-4H3/b18-17+",WVUCNLQROBXNOX-ISLYRVAYSA-N,CC(C)CCCCCCCOC(=O)\C=C\C(=O)OCCCCCCCC(C)C,-6.422274591,0,1,G1,396.612,6.6222,116.138,28,4,0,4,18,164,0,0,0,0,52.6,172.9934513,3.477842355,374.8282109
A-2629,didodecyl but-2-enedioate,"InChI=1S/C28H52O4/c1-3-5-7-9-11-13-15-17-19-21-25-31-27(29)23-24-28(30)32-26-22-20-18-16-14-12-10-8-6-4-2/h23-24H,3-22,25-26H2,1-2H3/b24-23+",HEJZJSIRBLOWPD-WCWDXBQESA-N,CCCCCCCCCCCCOC(=O)\C=C\C(=O)OCCCCCCCCCCCC,-6.479738422,0,1,G1,452.72,8.4708,134.746,32,4,0,4,24,188,0,0,0,0,52.6,198.4532197,3.394917032,404.7133266
A-2630,propan-2-yl (9Z)-octadec-9-enoate,"InChI=1S/C21H40O2/c1-4-5-6-7-8-9-10-11-12-13-14-15-16-17-18-19-21(22)23-20(2)3/h11-12,20H,4-10,13-19H2,1-3H3/b12-11-",PZQSQRCNMZGWFT-QXMHVHEDSA-N,CCCCCCCC\C=C/CCCCCCCC(=O)OC(C)C,-6.335189016,0,1,G1,324.549,6.9755,100.68,23,2,0,2,16,136,0,0,0,0,26.3,144.6235576,3.1752595,281.5661568
A-2631,"2,2-bis(hydroxymethyl)propane-1,3-diol; decanoic acid; heptanoic acid; octanoic acid","InChI=1S/C10H20O2.C8H16O2.C7H14O2.C5H12O4/c1-2-3-4-5-6-7-8-9-10(11)12;1-2-3-4-5-6-7-8(9)10;1-2-3-4-5-6-7(8)9;6-1-5(2-7,3-8)4-9/h2-9H2,1H3,(H,11,12);2-7H2,1H3,(H,9,10);2-6H2,1H3,(H,8,9);6-9H,1-4H2",DZVDMBMUZJQKGH-UHFFFAOYSA-N,CCCCCCCCCC(O)=O.CCCCCCCC(O)=O.CCCCCCC(O)=O.OCC(CO)(CO)CO,-6.61940343,0,1,G1,582.816,5.6266,158.4286,40,7,7,10,23,242,0,0,0,0,192.82,242.3842684,-2.18E-07,519.072702
A-2632,"2,3,4-Tris(6-diazo-5,6-dihydro-5-oxo-1-naphthalenesulfonyloxy)benzophenone","InChI=1S/C43H22N6O13S3/c44-47-31-19-15-24-27(39(31)51)9-4-12-35(24)63(54,55)60-34-22-18-30(38(50)23-7-2-1-3-8-23)42(61-64(56,57)36-13-5-10-28-25(36)16-20-32(48-45)40(28)52)43(34)62-65(58,59)37-14-6-11-29-26(37)17-21-33(49-46)41(29)53/h1-22H",IYBMFZHGMIRLPI-UHFFFAOYSA-N,[N-]=[N+]=C1C=Cc2c(cccc2[S](=O)(=O)Oc3ccc(C(=O)c4ccccc4)c(O[S](=O)(=O)c5cccc6C(=O)C(C=Cc56)=[N+]=[N-])c3O[S](=O)(=O)c7cccc8C(=O)C(C=Cc78)=[N+]=[N-])C1=O,-6.820895007,0,1,G1,926.879,4.8616,225.0566,65,13,0,22,11,320,5,0,3,8,307.59,366.5544557,1.374592068,3655.220196
A-2633,triethoxy(octyl)silane,"InChI=1S/C14H32O3Si/c1-5-9-10-11-12-13-14-18(15-6-2,16-7-3)17-8-4/h5-14H2,1-4H3",MSRJTTSHWYDFIU-UHFFFAOYSA-N,CCCCCCCC[Si](OCC)(OCC)OCC,-6.327740788,0,1,G1,276.493,4.3953,78.815,18,3,0,4,13,110,0,0,0,0,27.69,114.575107,3.968687269,159.4024891
A-2635,12-hydroxy-N-[2-(12-hydroxyoctadecanamido)ethyl]octadecanamide,"InChI=1S/C38H76N2O4/c1-3-5-7-21-27-35(41)29-23-17-13-9-11-15-19-25-31-37(43)39-33-34-40-38(44)32-26-20-16-12-10-14-18-24-30-36(42)28-22-8-6-4-2/h35-36,41-42H,3-34H2,1-2H3,(H,39,43)(H,40,44)",YLWQQYRYYZPZLJ-UHFFFAOYSA-N,CCCCCCC(O)CCCCCCCCCCC(=O)NCCNC(=O)CCCCCCCCCCC(O)CCCCCC,-6.735207192,0,1,G1,625.036,9.6834,187.891,44,4,4,6,35,262,0,0,0,0,98.66,273.2533453,3.352850104,563.6394764
A-2636,"2-[4-(4-oxo-4H-3,1-benzoxazin-2-yl)phenyl]-4H-3,1-benzoxazin-4-one",InChI=1S/C22H12N2O4/c25-21-15-5-1-3-7-17(15)23-19(27-21)13-9-11-14(12-10-13)20-24-18-8-4-2-6-16(18)22(26)28-20/h1-12H,BBITXNWQALLODC-UHFFFAOYSA-N,O=C1OC(=Nc2ccccc12)c3ccc(cc3)C4=Nc5ccccc5C(=O)O4,-6.517040294,0,1,G1,368.348,4.0234,104.988,28,6,0,6,2,134,5,0,0,5,86.2,157.2808944,1.581498555,1337.678419
A-2637,(13Z)-docos-13-enamide,"InChI=1S/C22H43NO/c1-2-3-4-5-6-7-8-9-10-11-12-13-14-15-16-17-18-19-20-21-22(23)24/h9-10H,2-8,11-21H2,1H3,(H2,23,24)/b10-9-",UAUDZVJPLUQNMU-KTKRTIGZSA-N,CCCCCCCC\C=C/CCCCCCCCCCCC(N)=O,-6.528392147,1.065971819,2,G2,337.592,7.0696,107.1144,24,1,1,2,19,142,0,0,0,0,43.09,151.2148452,3.062009198,285.6945021
A-2638,"1,1',1''-methanetriyltris(4-isocyanatobenzene)","InChI=1S/C22H13N3O3/c26-13-23-19-7-1-16(2-8-19)22(17-3-9-20(10-4-17)24-14-27)18-5-11-21(12-6-18)25-15-28/h1-12,22H",LTIKIBFTASQKMM-UHFFFAOYSA-N,O=C=Nc1ccc(cc1)C(c2ccc(cc2)N=C=O)c3ccc(cc3)N=C=O,-6.565096595,0,1,G1,367.364,4.7687,103.6155,28,6,0,6,6,134,3,0,0,3,88.29,160.1758937,2.074862886,954.9855997
A-2639,"1,2-Benzenedicarboxylic acid, di-C8-10-branched alkyl esters, C9-rich","InChI=1S/C26H42O4/c1-21(2)15-9-5-7-13-19-29-25(27)23-17-11-12-18-24(23)26(28)30-20-14-8-6-10-16-22(3)4/h11-12,17-18,21-22H,5-10,13-16,19-20H2,1-4H3",HBGGXOJOCNVPFY-UHFFFAOYSA-N,CC(C)CCCCCCOC(=O)c1ccccc1C(=O)OCCCCCCC(C)C,-6.621817899,1.244065111,4,G4,418.618,7.2132,122.853,30,4,0,4,16,170,1,0,0,1,52.6,183.2803801,2.322002411,553.8060884
A-2641,"1,6-bis(2-ethylhexyl) hexanedioate","InChI=1S/C22H42O4/c1-5-9-13-19(7-3)17-25-21(23)15-11-12-16-22(24)26-18-20(8-4)14-10-6-2/h19-20H,5-18H2,1-4H3",SAOKZLXYCUGLFA-UHFFFAOYSA-N,CCCCC(CC)COC(=O)CCCCC(=O)OCC(CC)CCCC,-6.568874945,1.129360843,4,G4,370.574,6.066,106.998,26,4,0,4,17,154,0,0,0,0,52.6,160.9531701,3.731744715,320.0514103
A-2642,"1,6-bis(2-methylnonyl) hexanedioate","InChI=1S/C26H50O4/c1-23(2)17-11-7-5-9-15-21-29-25(27)19-13-14-20-26(28)30-22-16-10-6-8-12-18-24(3)4/h23-24H,5-22H2,1-4H3",YKGYQYOQRGPFTO-UHFFFAOYSA-N,CC(C)CCCCCCCOC(=O)CCCCC(=O)OCCCCCCCC(C)C,-6.630104322,1.678297839,2,G2,426.682,7.6264,125.466,30,4,0,4,21,178,0,0,0,0,52.6,186.4129385,3.330719762,365.8377762