ID,Name,InChI,InChIKey,SMILES,Solubility,SD,Ocurrences,Group,MolWt,MolLogP,MolMR,HeavyAtomCount,NumHAcceptors,NumHDonors,NumHeteroatoms,NumRotatableBonds,NumValenceElectrons,NumAromaticRings,NumSaturatedRings,NumAliphaticRings,RingCount,TPSA,LabuteASA,BalabanJ,BertzCT
A-4470,6-chlorohexan-1-ol,"InChI=1S/C6H13ClO/c7-5-3-1-2-4-6-8/h8H,1-6H2",JNTPTNNCGDAGEJ-UHFFFAOYSA-N,OCCCCCCCl,-1.082442195,0,1,G1,136.622,1.7779,36.2738,8,1,1,2,5,50,0,0,0,0,20.23,55.66146158,2.530060457,33.509775
A-4471,suberonitrile,InChI=1S/C8H12N2/c9-7-5-3-1-2-4-6-8-10/h1-6H2,BTNXBLUGMAMSSH-UHFFFAOYSA-N,N#CCCCCCCC#N,-1.081092287,0,1,G1,136.198,2.37416,38.928,10,2,0,2,5,54,0,0,0,0,47.58,62.07900519,2.803082392,120.317031
A-4472,2-(4-methyl-5-oxo-4-propan-2-yl-1H-imidazol-2-yl)pyridine-3-carboxylic acid,"InChI=1S/C13H15N3O3/c1-7(2)13(3)12(19)15-10(16-13)9-8(11(17)18)5-4-6-14-9/h4-7H,1-3H3,(H,17,18)(H,15,16,19)",CLQMBPJKHLGMQK-UHFFFAOYSA-N,CC(C)C1(C)N=C(NC1=O)c2ncccc2C(O)=O,-1.364029386,0,1,G1,261.281,1.0709,69.119,19,4,2,6,3,100,1,0,1,2,91.65,110.1272195,2.506540118,580.2511034
A-4474,pent-2-enenitrile,"InChI=1S/C5H7N/c1-2-3-4-5-6/h3-4H,2H2,1H3/b4-3-",ISBHMJZRKAFTGE-ARJAWSKDSA-N,CC\C=C/C#N,-0.859899212,0,1,G1,81.118,1.47618,25.044,6,1,0,1,1,32,0,0,0,0,23.79,37.90199613,3.01606149,76.42945954
A-4477,"2-phenyl-4,5-dihydro-1H-imidazole","InChI=1S/C9H10N2/c1-2-4-8(5-3-1)9-10-6-7-11-9/h1-5H,6-7H2,(H,10,11)/p+1",BKCCAYLNRIRKDJ-UHFFFAOYSA-O,C1C[NH+]=C(N1)c2ccccc2,-1.126518075,0,1,G1,147.201,-0.883,44.3834,11,1,2,2,1,56,1,0,1,2,26,65.96558298,2.292411894,264.1510391
A-4478,"tricyclo[2.2.2.2~1,4~]decane-2,5-diyldimethanol","InChI=1S/C12H20O2/c13-5-7-1-2-10-11-4-8(12(7)10)3-9(11)6-14/h7-14H,1-6H2",OTLDLKLSNZMTTA-UHFFFAOYSA-N,OCC1CCC2C3CC(CC3CO)C12,-1.25150549,0,1,G1,196.29,1.2694,53.5796,14,2,2,2,2,80,0,3,3,3,40.46,85.32458833,1.795609845,226.3616189
A-4479,hydroxy(phenyl)acetic acid,"InChI=1S/C8H8O3/c9-7(8(10)11)6-4-2-1-3-5-6/h1-5,7,9H,(H,10,11)/t7-/m1/s1",IWYDHOAUDWTVEP-SSDOTTSWSA-N,O[C@@H](C(O)=O)c1ccccc1,-0.141666762,0,1,G1,152.149,0.8046,39.0376,11,2,2,3,2,58,1,0,0,1,57.53,63.91127695,2.85117789,242.7739002
A-4480,Alpha-Methylglucoside,"InChI=1S/C7H14O6/c1-12-7-6(11)5(10)4(9)3(2-8)13-7/h3-11H,2H2,1H3",HOVAGTYPODGVJG-UHFFFAOYSA-N,COC1OC(CO)C(O)C(O)C1O,0.745212549,0.223106275,2,G3,194.183,-2.5673,40.7762,13,6,4,6,2,78,0,1,1,1,99.38,75.32709803,2.65939048,143.0617569
A-4483,"but-2-yne-1,4-diol; 2-(chloromethyl)oxirane","InChI=1S/C4H6O2.C3H5ClO/c5-3-1-2-4-6;4-1-3-2-5-3/h5-6H,3-4H2;3H,1-2H2",NHNWEVUXQTXHJI-UHFFFAOYSA-N,OCC#CCO.ClCC1CO1,0.777871543,1.193168397,2,G2,178.615,-0.4016,42.4076,11,3,2,4,1,64,0,1,1,1,52.99,70.93340807,1.83E-07,126.3564499
A-4484,3-methyloxolane,"InChI=1S/C5H10O/c1-5-2-3-6-4-5/h5H,2-4H2,1H3",LJPCNSSTRWGCMZ-UHFFFAOYSA-N,CC1CCOC1,0.090131249,0,1,G1,86.134,1.0428,24.6,6,1,0,1,0,36,0,1,1,1,9.23,38.30673356,2.18410557,37.20310344
A-4485,chromium(3+) ion trinitrate,InChI=1S/Cr.3NO3/c;3*2-1(3)4/q+3;3*-1,PHFQLYPOURZARY-UHFFFAOYSA-N,[Cr+3].[O-][N+]([O-])=O.[O-][N+]([O-])=O.[O-][N+]([O-])=O,0.64563055,0,1,G1,238.008,-0.7198,31.0842,13,9,0,13,0,75,0,0,0,0,198.6,79.46322813,-4.50E-08,112.4094789
A-4486,1-ethenylsulfanylethanol,"InChI=1S/C4H8OS/c1-3-6-4(2)5/h3-5H,1H2,2H3",XBSXOHLQFBHTPM-UHFFFAOYSA-N,CC(O)SC=C,0.005493119,0,1,G1,104.174,1.2014,29.4688,6,2,1,2,2,36,0,0,0,0,20.23,42.06181812,2.814144222,42.81274391
A-4487,"disodium 4-amino-3-[(E)-2-{4-[(E)-2-(2,4-diaminophenyl)diazen-1-yl]phenyl}diazen-1-yl]-5-hydroxy-6-[(E)-2-phenyldiazen-1-yl]naphthalene-2,7-disulfonate","InChI=1S/C28H23N9O7S2.2Na/c29-16-6-11-21(20(30)14-16)35-32-18-7-9-19(10-8-18)34-36-26-22(45(39,40)41)12-15-13-23(46(42,43)44)27(28(38)24(15)25(26)31)37-33-17-4-2-1-3-5-17;;/h1-14,33H,29-31H2,(H,39,40,41)(H,42,43,44);;/q;2*+1/p-2/b35-32?,36-34?,37-27+;;",YMIBJBNQAFRCFJ-DCWIDPHOSA-L,[Na+].[Na+].Nc1ccc(N=Nc2ccc(cc2)N=Nc3c(N)c4C(=O)C(=N/Nc5ccccc5)/C(=Cc4cc3[S]([O-])(=O)=O)[S]([O-])(=O)=O)c(N)c1,-0.827397585,0,1,G1,705.646,-1.2734,168.3828,48,16,4,20,8,234,4,0,1,5,283.36,317.9411618,3.12E-06,2229.543857
A-4488,disodium 2-[carboxymethyl-[2-[carboxymethyl-(2-oxido-2-oxoethyl)amino]ethyl]amino]acetate,"InChI=1S/C10H16N2O8.2Na/c13-7(14)3-11(4-8(15)16)1-2-12(5-9(17)18)6-10(19)20;;/h1-6H2,(H,13,14)(H,15,16)(H,17,18)(H,19,20);;/q;2*+1/p-2",ZGTMUACCHSMWAC-UHFFFAOYSA-L,[Na+].[Na+].OC(=O)CN(CCN(CC(O)=O)CC([O-])=O)CC([O-])=O,-0.505418744,0.013807469,3,G5,336.208,-10.7326,58.1656,22,8,2,12,11,114,0,0,0,0,161.34,170.1932201,-1.80E-06,325.1228148
A-4489,nitromethane,InChI=1S/CH3NO2/c1-2(3)4/h1H3,LYGJENNIWJXYER-UHFFFAOYSA-N,C[N+]([O-])=O,0.233501766,0.013099117,2,G3,61.04,-0.1071,12.9184,4,2,0,3,0,24,0,0,0,0,43.14,23.39222675,2.803039488,29.01955001
A-4490,samarium(3+) ion trinitrate,InChI=1S/3NO3.Sm/c3*2-1(3)4;/q3*-1;+3,YZDZYSPAJSPJQJ-UHFFFAOYSA-N,[Sm+3].[O-][N+]([O-])=O.[O-][N+]([O-])=O.[O-][N+]([O-])=O,0.486017387,0.148833228,3,G5,336.372,-0.7173,31.0842,13,9,0,13,0,75,0,0,0,0,198.6,101.1960561,-4.50E-08,112.4094789
A-4492,3-methylpent-1-yn-3-ol,"InChI=1S/C6H10O/c1-4-6(3,7)5-2/h1,7H,5H2,2-3H3",QXLPXWSKPNOQLE-UHFFFAOYSA-N,CCC(C)(O)C#C,0.016731992,0.049653553,3,G5,98.145,0.7806,29.7478,7,1,1,1,1,40,0,0,0,0,20.23,44.35742074,3.655790926,86.84336712
A-4493,hexanedihydrazide,"InChI=1S/C6H14N4O2/c7-9-5(11)3-1-2-4-6(12)10-8/h1-4,7-8H2,(H,9,11)(H,10,12)",IBVAQQYNSHJXBV-UHFFFAOYSA-N,NNC(=O)CCCCC(=O)NN,-0.232457951,0,1,G1,174.204,-1.4734,43.1282,12,4,4,6,5,70,0,0,0,0,110.24,70.6067836,3.211729783,141.6270751
A-4495,"1,2-dimethoxyethane","InChI=1S/C4H10O2/c1-5-3-4-6-2/h3-4H2,1-2H3",XTHFKEDIFFGKHM-UHFFFAOYSA-N,COCCOC,1.045169179,0,1,G1,90.122,0.2792,23.752,6,2,0,2,3,38,0,0,0,0,18.46,38.06116783,2.339092315,17.509775
A-4496,"1,4-dioxane",InChI=1S/C4H8O2/c1-2-6-4-3-5-1/h1-4H2,RYHBNJHYFVUHQT-UHFFFAOYSA-N,C1COCCO1,1.054994515,0,1,G1,88.106,0.0332,21.638,6,2,0,2,0,36,0,1,1,1,18.46,37.05533668,2,21.01955001
A-4498,1-methylpyrrolidin-2-one,"InChI=1S/C5H9NO/c1-6-4-2-3-5(6)7/h2-4H2,1H3",SECXISVLQFMRJM-UHFFFAOYSA-N,CN1CCCC1=O,1.003781751,0,1,G1,99.133,0.2386,26.871,7,1,0,2,0,40,0,1,1,1,20.31,43.1145441,2.478438739,90.080944
A-4499,1-methylurea,"InChI=1S/C2H6N2O/c1-4-2(3)5/h1H3,(H3,3,4,5)",XGEGHDBEHXKFPX-UHFFFAOYSA-N,CNC(N)=O,1.130281439,0,1,G1,74.083,-0.7155,18.6431,5,1,2,3,0,30,0,0,0,0,55.12,30.15546812,2.847378923,42.91260938
A-4500,"2,2'-sulfanediyldiethanol","InChI=1S/C4H10O2S/c5-1-3-7-4-2-6/h5-6H,1-4H2",YODZTKMDCQEPHD-UHFFFAOYSA-N,OCCSCCO,0.91296789,0,1,G1,122.189,-0.2958,31.4966,7,3,2,3,4,44,0,0,0,0,40.46,47.5456549,2.447472888,28.8707654
A-4501,"2,6-dimethylmorpholine","InChI=1S/C6H8O7.H2O/c7-3(8)1-6(13,5(11)12)2-4(9)10;/h13H,1-2H2,(H,7,8)(H,9,10)(H,11,12);1H2",YASYEJJMZJALEJ-UHFFFAOYSA-N,O.OC(=O)CC(O)(CC(O)=O)C(O)=O,0.677495406,0,1,G1,210.138,-2.0732,40.705,14,4,4,8,5,82,0,0,0,0,163.63,77.70621634,0,228.2160592
A-4503,2-(2-hydroxyethoxy)ethan-1-ol,"InChI=1S/C4H10O3/c5-1-3-7-4-2-6/h5-6H,1-4H2",MTHSVFCYNBDYFN-UHFFFAOYSA-N,OCCOCCO,0.974198666,0,1,G1,106.121,-1.0124,24.9906,7,3,2,3,4,44,0,0,0,0,49.69,42.5360901,2.447472888,26.1158779
A-4504,2-(2-oxoimidazolidin-1-yl)ethyl methacrylate,"InChI=1S/C9H14N2O3/c1-7(2)8(12)14-6-5-11-4-3-10-9(11)13/h1,3-6H2,2H3,(H,10,13)",PFPUZMSQZJFLBK-UHFFFAOYSA-N,CC(=C)C(=O)OCCN1CCNC1=O,0.702848146,1.5,2,G2,198.222,0.1309,50.7447,14,3,1,5,4,78,0,1,1,1,58.64,82.70963904,2.17895001,262.7826815
A-4505,2-(dimethylamino)-2-methylpropan-1-ol,"InChI=1S/C6H15NO.ClH/c1-6(2,5-8)7(3)4;/h8H,5H2,1-4H3;1H",QVNXEWQCNPSJLG-UHFFFAOYSA-N,[H+].[Cl-].CN(C)C(C)(C)CO,0.813458956,0,1,G1,153.653,-2.5646,35.9638,9,2,1,3,2,58,0,0,0,0,23.47,64.75592064,-2.45E-07,78.14806784
A-4507,2-[(2-aminoethyl)amino]ethan-1-ol,"InChI=1S/C4H12N2O/c5-1-2-6-3-4-7/h6-7H,1-5H2",LHIJANUOQQMGNT-UHFFFAOYSA-N,NCCNCCO,0.982328216,0,1,G1,104.153,-1.473,29.0099,7,3,3,3,4,44,0,0,0,0,58.28,43.518064,2.447472888,28.8707654
A-4508,2-[(2-hydroxyethyl)(methyl)amino]ethan-1-ol,"InChI=1S/C5H13NO2/c1-6(2-4-7)3-5-8/h7-8H,2-5H2,1H3",CRVGTESFCCXCTH-UHFFFAOYSA-N,CN(CCO)CCO,0.923854927,0,1,G1,119.164,-1.0972,31.6686,8,3,2,3,4,50,0,0,0,0,43.7,49.54732066,2.919612641,43.69332843
A-4509,2-[2-(2-hydroxyethoxy)ethoxy]ethan-1-ol,"InChI=1S/C6H14O4/c7-1-3-9-5-6-10-4-2-8/h7-8H,1-6H2",ZIBGPFATKBEMQZ-UHFFFAOYSA-N,OCCOCCOCCO,0.823405251,0,1,G1,150.174,-0.9958,35.8096,10,4,2,4,7,62,0,0,0,0,58.92,60.37951956,2.647604849,49.70950594
A-4510,2-[bis(2-hydroxyethyl)amino]ethan-1-ol,"InChI=1S/C6H15NO3/c8-4-1-7(2-5-9)3-6-10/h8-10H,1-6H2",GSEJCLTVZPLZKY-UHFFFAOYSA-N,OCCN(CCO)CCO,0.826260286,0,1,G1,149.19,-1.7347,37.6974,10,4,3,4,6,62,0,0,0,0,63.93,60.70649653,3.295082116,55.74860596
A-4511,2-chloroethan-1-ol,"InChI=1S/C2H5ClO/c3-1-2-4/h4H,1-2H2",SZIFAVKTNFCBPC-UHFFFAOYSA-N,OCCCl,1.094128597,0,1,G1,80.514,0.2175,17.8058,4,1,1,2,1,26,0,0,0,0,20.23,30.20169312,1.974744871,8
A-4512,2-cyanoacetic acid,"InChI=1S/C3H3NO2/c4-2-1-3(5)6/h1H2,(H,5,6)",MLIREBYILWEBDM-UHFFFAOYSA-N,OC(=O)CC#N,1.07026441,0,1,G1,85.062,-0.01532,17.8658,6,2,1,3,1,32,0,0,0,0,61.09,34.81747079,3.127579952,91.45654517
A-4513,2-hydroxyethyl prop-2-enoate,"InChI=1S/C5H8O3/c1-2-5(7)8-4-3-6/h2,6H,1,3-4H2",OMIGHNLMNHATMP-UHFFFAOYSA-N,OCCOC(=O)C=C,0.935107933,0,1,G1,116.116,-0.2921,28.2418,8,3,1,3,3,46,0,0,0,0,46.53,47.57871753,3.111430121,87.67457204
A-4514,2-hydroxypropanenitrile,"InChI=1S/C3H5NO/c1-3(5)2-4/h3,5H,1H3",WOFDVDFSGLBFAC-UHFFFAOYSA-N,CC(O)C#N,1.148258691,0,1,G1,71.079,-0.10922,17.2938,5,2,1,2,0,28,0,0,0,0,44.02,30.65594869,2.939447246,52.40362799
A-4515,2-methylbut-3-yn-2-ol,"InChI=1S/C5H8O/c1-4-5(2,3)6/h1,6H,2-3H3",CEBKHWWANWSNTI-UHFFFAOYSA-N,CC(C)(O)C#C,1.075111062,0,1,G1,84.118,0.3905,25.1308,6,1,1,1,0,34,0,0,0,0,20.23,37.99247863,3.552734355,70.91968454
A-4516,2-methylpropan-2-amine,"InChI=1S/C4H11N/c1-4(2,3)5/h5H2,1-3H3",YBRBMKDOPFTVDT-UHFFFAOYSA-N,CC(C)(C)N,1.135850982,0,1,G1,73.139,0.7436,23.9404,5,1,1,1,0,32,0,0,0,0,26.02,33.17396807,3.023715784,19.11941548
A-4517,2-methylpropan-2-ol,"InChI=1S/C4H10O/c1-4(2,3)5/h5H,1-3H3",DKGAVHZHDRPRBM-UHFFFAOYSA-N,CC(C)(C)O,1.130047012,0,1,G1,74.123,0.7772,21.9718,5,1,1,1,0,32,0,0,0,0,20.23,32.62831112,3.023715784,19.11941548
A-4518,2-methylpyridine,"InChI=1S/C6H7N/c1-6-4-2-3-5-7-6/h2-5H,1H3",BSKHPKMHTQYZBB-UHFFFAOYSA-N,Cc1ccccn1,1.03091506,0,1,G1,93.129,1.39002,28.974,7,1,0,1,0,36,1,0,0,1,12.89,43.01599321,3.02146531,134.1073697
A-4519,2-sulfanylethan-1-ol,"InChI=1S/C2H6OS/c3-1-2-4/h3-4H,1-2H2",DGVVWUTYPXICAM-UHFFFAOYSA-N,OCCS,1.107148825,0,1,G1,78.136,-0.0915,20.9388,4,2,2,2,1,26,0,0,0,0,20.23,31.05349356,1.974744871,8
A-4520,3-(dimethylamino)propan-1-ol,"InChI=1S/C5H13NO/c1-6(2)4-3-5-7/h7H,3-5H2,1-2H3",PYSGFFTXMUWEOT-UHFFFAOYSA-N,CN(C)CCCO,0.986467618,0,1,G1,103.165,-0.0696,30.2568,7,2,1,2,3,44,0,0,0,0,23.47,44.75308691,2.678257743,37.06139399
A-4521,"3-methyl-1-vinyl-2,3-dihydro-1H-imidazol-1-ium methyl sulfate","InChI=1S/C6H9N2.CH4O4S/c1-3-8-5-4-7(2)6-8;1-5-6(2,3)4/h3-6H,1H2,2H3;1H3,(H,2,3,4)/q+1;/p-1",BZVFPIHTRLNAQA-UHFFFAOYSA-M,CO[S]([O-])(=O)=O.C[n+]1ccn(C=C)c1,0.657084083,0,1,G1,220.25,-0.4939,48.7012,14,5,0,7,2,80,1,0,0,1,75.24,83.00733619,2.55E-07,382.1489877
A-4522,4-hydroxybenzenesulfonic acid,"InChI=1S/C6H6O4S/c7-5-1-3-6(4-2-5)11(8,9)10/h1-4,7H,(H,8,9,10)",FEPBITJSIHRMRT-UHFFFAOYSA-N,Oc1ccc(cc1)[S](O)(=O)=O,0.759009194,0.059957705,2,G3,174.177,0.6389,37.9214,11,3,2,5,1,60,1,0,0,1,74.6,63.85427288,3.201515931,337.349962
A-4523,4-hydroxybutyl prop-2-enoate,"InChI=1S/C7H12O3/c1-2-7(9)10-6-4-3-5-8/h2,8H,1,3-6H2",NDWUBGAGUCISDV-UHFFFAOYSA-N,OCCCCOC(=O)C=C,0.841125102,0,1,G1,144.17,0.4881,37.4758,10,3,1,3,5,58,0,0,0,0,46.53,60.30860176,3.033873495,109.4188468
A-4524,"N,N-dimethylacetamide",InChI=1S/C4H9NO/c1-4(6)5(2)3/h1-3H3,FXHOOIRPVKKKFG-UHFFFAOYSA-N,CN(C)C(C)=O,1.059872163,0.025063918,2,G3,87.122,0.0945,24.368,6,1,0,2,0,36,0,0,0,0,20.31,37.75543314,3.257586161,58.56842503
A-4525,N-(1-cyanoethyl)formamide,"InChI=1S/C4H6N2O/c1-4(2-5)6-3-7/h3-4H,1H3,(H,6,7)",ONONIESHMTZAKB-UHFFFAOYSA-N,CC(NC=O)C#N,1.008308858,0,1,G1,98.105,-0.35552,24.2747,7,2,1,3,2,38,0,0,0,0,52.89,41.93804134,3.209971691,94.35314212
A-4526,N-ethylethanamine,"InChI=1S/C4H11N/c1-3-5-4-2/h5H,3-4H2,1-2H3",HPNMFZURTQLUMO-UHFFFAOYSA-N,CCNCC,1.135850982,0,1,G1,73.139,0.6158,24.2177,5,1,1,1,2,32,0,0,0,0,12.03,33.38393955,2.190609687,11.11941548
A-4527,N-methylacetamide,"InChI=1S/C3H7NO/c1-3(5)4-2/h1-2H3,(H,4,5)",OHLUUHNLEMFGTQ-UHFFFAOYSA-N,CNC(C)=O,1.13611233,0,1,G1,73.095,-0.2477,19.7407,5,1,1,2,0,30,0,0,0,0,29.1,31.18051954,2.847378923,42.15772188
A-4528,aziridine,"InChI=1S/C2H5N/c1-2-3-1/h3H,1-2H2",NOWKCMXCCJGMRR-UHFFFAOYSA-N,C1CN1,1.365835212,0,1,G1,43.069,-0.4104,12.8697,3,1,1,1,0,18,0,1,1,1,21.94,19.64822417,2.25,7.509775004
A-4529,"butane-1,2-diol","InChI=1S/C4H10O2/c1-2-4(6)3-5/h4-6H,2-3H2,1H3",BMRWNKZVCUKKSR-UHFFFAOYSA-N,CCC(O)CO,1.045169179,0,1,G1,90.122,-0.2504,23.3836,6,2,2,2,2,38,0,0,0,0,40.46,37.42254488,2.754184786,24.72905595
A-4530,"butane-2,3-diol","InChI=1S/C4H10O2/c1-3(5)4(2)6/h3-6H,1-2H3/t3-,4+",OWBTYPJTUOEWEK-ZXZARUISSA-N,C[C@@H](O)[C@H](C)O,1.045169179,0,1,G1,90.122,-0.252,23.3616,6,2,2,2,1,38,0,0,0,0,40.46,37.42254488,2.993497243,26.52932501
A-4531,cyclohexanamine,"InChI=1S/C6H13N/c7-6-4-2-1-3-5-6/h6H,1-5,7H2",PAFZNILMFXTMIY-UHFFFAOYSA-N,NC1CCCCC1,1.003589033,0,1,G1,99.177,1.2778,31.0604,7,1,1,1,0,42,0,1,1,1,26.02,44.89802114,2.12291795,46.14170945
A-4532,cyclopropanamine,"InChI=1S/C3H7N/c4-3-1-2-3/h3H,1-2,4H2",HTJDQJBWANPRPF-UHFFFAOYSA-N,NC1CC1,1.243394316,0,1,G1,57.096,0.1075,17.2094,4,1,1,1,0,24,0,1,1,1,26.02,25.8031948,2.171098318,22.46439345
A-4533,ethanedioyl dichloride,InChI=1S/C2Cl2O2/c3-1(5)2(4)6,CTSLXHKWHWQRSH-UHFFFAOYSA-N,ClC(=O)C(Cl)=O,0.896449406,0,1,G1,126.926,0.5172,21.72,6,2,0,4,1,34,0,0,0,0,34.14,44.0337698,3.567703455,75.54887502
A-4534,formamide,"InChI=1S/CH3NO/c2-1-3/h1H,(H2,2,3)",ZHNUHDYFZUAESO-UHFFFAOYSA-N,NC=O,1.346391976,0,1,G1,45.041,-0.8985,10.2514,3,1,1,2,0,18,0,0,0,0,43.09,18.24066382,2.187496097,12.26466251
A-4535,methanesulfonic acid,"InChI=1S/CH4O3S/c1-5(2,3)4/h1H3,(H,2,3,4)",AFVFQIVMOAPDHO-UHFFFAOYSA-N,C[S](O)(=O)=O,1.017244979,0,1,G1,96.107,-0.496,17.4726,5,2,1,4,0,32,0,0,0,0,54.37,30.36788704,4.062942299,90.06147084
A-4536,methyl hydroxymethoxyacetate,"InChI=1S/C4H8O4/c1-7-4(6)2-8-3-5/h5H,2-3H2,1H3",RNVVYVPDHMKDTL-UHFFFAOYSA-N,COC(=O)COCO,0.920442528,0,1,G1,120.104,-0.8742,25.0538,8,4,1,4,3,48,0,0,0,0,55.76,47.01692368,2.988598648,70.4385619
A-4537,methylhydrazine,"InChI=1S/CH6N2/c1-3-2/h3H,2H2,1H3",HDZGCSFEDULWCS-UHFFFAOYSA-N,CNN,1.336553508,0,1,G1,46.073,-0.9205,13.2471,3,2,2,2,0,20,0,0,0,0,38.05,19.59913993,1.632993162,2.754887502
A-4538,oxan-2-one,InChI=1S/C5H8O2/c6-5-3-1-2-4-7-5/h1-4H2,OZJPLYNZGCXSJM-UHFFFAOYSA-N,O=C1CCCCO1,0.999492173,0,1,G1,100.117,0.7135,24.81,7,2,0,2,0,40,0,1,1,1,26.3,42.46825566,2.249544095,70.14933959
A-4539,"pentane-1,2-diol","InChI=1S/C5H12O2/c1-2-3-5(7)4-6/h5-7H,2-4H2,1H3",WCVRQHFDJLLWFE-UHFFFAOYSA-N,CCCC(O)CO,0.982344896,0,1,G1,104.149,0.1397,28.0006,7,2,2,2,3,44,0,0,0,0,40.46,43.78748699,2.831819966,37.06139399
A-4540,"pentane-1,5-diol","InChI=1S/C5H12O2/c6-4-2-1-3-5-7/h6-7H,1-5H2",ALQSHHUCVQOPAS-UHFFFAOYSA-N,OCCCCCO,0.982344896,0,1,G1,104.149,0.1413,28.0226,7,2,2,2,4,44,0,0,0,0,40.46,43.78748699,2.447472888,25.26112493
A-4544,"propane-1,2-diamine","InChI=1S/C3H10N2/c1-3(5)2-4/h3H,2,4-5H2,1H3",AOHJOMMDDJHIJH-UHFFFAOYSA-N,CC(N)CN,1.130023576,0,1,G1,74.127,-0.7077,22.7038,5,2,2,2,1,32,0,0,0,0,52.04,32.14891665,2.539538861,18.85475297
A-4545,propanoic acid,"InChI=1S/C3H6O2/c1-2-3(4)5/h2H2,1H3,(H,4,5)",XBDQKXXYIPTUBI-UHFFFAOYSA-N,CCC(O)=O,1.130304889,0,1,G1,74.079,0.481,17.9268,5,1,1,2,1,30,0,0,0,0,37.3,30.42489111,2.847378923,40.15772188
A-4546,sodium trichloroacetate,"InChI=1S/C2HCl3O2.Na/c3-2(4,5)1(6)7;/h(H,6,7);/q;+1/p-1",SAQSTQBVENFSKT-UHFFFAOYSA-M,[Na+].[O-]C(=O)C(Cl)(Cl)Cl,0.731962893,0.039590623,2,G3,185.369,-2.8895,25.297,8,2,0,6,0,42,0,0,0,0,40.13,83.3831473,0,87.77443751
A-4547,"tetrasodium 5-({4-[bis(2-hydroxypropyl)amino]-6-[(4-sulfonatophenyl)amino]-1,3,5-triazin-2-yl}amino)-2-[(E)-2-[4-({4-[bis(2-hydroxypropyl)amino]-6-[(4-sulfonatophenyl)amino]-1,3,5-triazin-2-yl}amino)-2-sulfonatophenyl]ethenyl]benzene-1-sulfonate","InChI=1S/C44H52N12O16S4.4Na/c1-25(57)21-55(22-26(2)58)43-51-39(45-31-11-15-35(16-12-31)73(61,62)63)49-41(53-43)47-33-9-7-29(37(19-33)75(67,68)69)5-6-30-8-10-34(20-38(30)76(70,71)72)48-42-50-40(46-32-13-17-36(18-14-32)74(64,65)66)52-44(54-42)56(23-27(3)59)24-28(4)60;;;;/h5-20,25-28,57-60H,21-24H2,1-4H3,(H,61,62,63)(H,64,65,66)(H,67,68,69)(H,70,71,72)(H2,45,47,49,51,53)(H2,46,48,50,52,54);;;;/q;4*+1/p-4/b6-5+;;;;",NTHKAJBKFNFLHL-WPYDVODASA-J,[Na+].[Na+].[Na+].[Na+].CC(O)CN(CC(C)O)c1nc(Nc2ccc(cc2)[S]([O-])(=O)=O)nc(Nc3ccc(/C=C/c4ccc(Nc5nc(Nc6ccc(cc6)[S]([O-])(=O)=O)nc(n5)N(CC(C)O)CC(C)O)cc4[S]([O-])(=O)=O)c(c3)[S]([O-])(=O)=O)n1,-0.086773993,0,1,G1,1221.164,-10.0302,270.4828,80,28,8,36,24,408,6,0,0,6,441.66,549.5185422,5.47E-06,3309.799759
A-4548,tributyl(methyl)azanium chloride,"InChI=1S/C13H30N.HI/c1-5-8-11-14(4,12-9-6-2)13-10-7-3;/h5-13H2,1-4H3;1H/q+1;/p-1",DXJLCRNXYNRGRA-UHFFFAOYSA-M,[I-].CCCC[N+](C)(CCCC)CCCC,0.485061956,0,1,G1,327.294,0.8373,65.5094,15,0,0,2,9,94,0,0,0,0,0,114.232154,0,103.929923
A-4549,trifluoroacetic acid,"InChI=1S/C2HF3O2/c3-2(4,5)1(6)7/h(H,6,7)",DTQVDTLACAAQTR-UHFFFAOYSA-N,OC(=O)C(F)(F)F,0.943011346,0,1,G1,114.022,0.6333,13.6908,7,1,1,5,0,42,0,0,0,0,37.3,36.5565552,3.791118417,83.42592197
A-4551,"1,2-oxathiolane 2,2-dioxide",InChI=1S/C3H6O3S/c4-7(5)3-1-2-6-7/h1-3H2,FSSPGSAQUIYDCN-UHFFFAOYSA-N,O=[S]1(=O)CCCO1,-0.086875694,0,1,G1,122.145,-0.2635,24.3558,7,3,0,4,0,42,0,1,1,1,43.37,42.41125159,2.762020468,133.562955
A-4553,"disodium 2,2'-ethene-1,2-diylbis(5-aminobenzenesulfonate)","InChI=1S/C14H14N2O6S2.2Na/c15-11-5-3-9(13(7-11)23(17,18)19)1-2-10-4-6-12(16)8-14(10)24(20,21)22;;/h1-8H,15-16H2,(H,17,18,19)(H,20,21,22);;/q;2*+1/p-2/b2-1+;;",YAKFHPREDNNSFX-SEPHDYHBSA-L,[Na+].[Na+].Nc1ccc(\C=C\c2ccc(N)cc2[S]([O-])(=O)=O)c(c1)[S]([O-])(=O)=O,-0.617390402,0,1,G1,414.372,-5.1624,86.5632,26,8,2,12,4,128,2,0,0,2,166.44,195.2926312,3.12E-06,953.8976822
A-4556,yttrium(3+) acetate,"InChI=1S/3C2H4O2.Y/c3*1-2(3)4;/h3*1H3,(H,3,4);/q;;;+3/p-3",JUWHRRAPBUAYTA-UHFFFAOYSA-K,[Y+3].CC([O-])=O.CC([O-])=O.CC([O-])=O,-0.424943674,0,1,G1,266.038,-3.7339,32.043,13,6,0,7,0,72,0,0,0,0,120.39,100.8265538,-4.50E-08,114.6741414
A-4557,3-aminobenzenesulfonic acid,"InChI=1S/C6H7NO3S/c7-5-2-1-3-6(4-5)11(8,9)10/h1-4H,7H2,(H,8,9,10)",ZAJAQTYSTDTMCU-UHFFFAOYSA-N,Nc1cccc(c1)[S](O)(=O)=O,-1.20510658,0.182817935,4,G5,173.193,0.5155,40.669,11,3,2,5,1,60,1,0,0,1,80.39,64.39992983,3.277910585,357.8450745
A-4558,6'-methoxycinchonan-9-ol sulfate (salt),"InChI=1S/C20H24N2O2.H2O4S/c1-3-13-12-22-9-7-14(13)10-19(22)20(23)16-6-8-21-18-5-4-15(24-2)11-17(16)18;1-5(2,3)4/h3-6,8,11,13-14,19-20,23H,1,7,9-10,12H2,2H3;(H2,1,2,3,4)",AKYHKWQPZHDOBW-UHFFFAOYSA-N,COc1ccc2nccc(C(O)C3CC4CCN3CC4C=C)c2c1.O[S](O)(=O)=O,-1.592406042,0,1,G1,422.503,2.5204,109.2042,29,6,3,9,4,158,2,3,3,5,120.19,169.951131,4.31E-07,972.0952969
A-4559,3-bromo-1-(3-chloropyridin-2-yl)-1H-pyrazole-5-carboxylic acid,"InChI=1S/C9H5BrClN3O2/c10-7-4-6(9(15)16)14(13-7)8-5(11)2-1-3-12-8/h1-4H,(H,15,16)",FORBXGROTPOMEH-UHFFFAOYSA-N,OC(=O)c1cc(Br)nn1c2ncccc2Cl,-1.448934642,1.50258099,7,G4,302.515,2.3814,61.0283,16,4,1,7,2,82,2,0,0,2,68.01,103.8068906,2.64328491,555.4371683
A-4560,2-methoxy-2-methylbutane,"InChI=1S/C6H14O/c1-5-6(2,3)7-4/h5H2,1-4H3",HVZJRWJGKQPSFL-UHFFFAOYSA-N,CCC(C)(C)OC,-0.979563677,0.009948373,3,G5,102.177,1.8214,31.379,7,1,0,1,2,44,0,0,0,0,9.23,45.67750683,3.360435143,42.14170945
A-4567,1-hydroxy-1-phenylacetone,"InChI=1S/C9H10O2/c1-7(10)9(11)8-5-3-2-4-6-8/h2-6,9,11H,1H3",ZBFFNPODXBJBPW-UHFFFAOYSA-N,CC(=O)C(O)c1ccccc1,-1.176603424,0,1,G1,150.177,1.309,42.0828,11,2,1,2,2,58,1,0,0,1,37.3,65.48198531,2.85117789,240.9994627
A-4569,diammonium carbonate,"InChI=1S/CH2O3.2H3N/c2-1(3)4;;/h(H2,2,3,4);2*1H3",PRKQVKDSMLBJBJ-UHFFFAOYSA-N,N.N.OC(O)=O,-0.982660114,0,1,G1,96.086,0.5464,20.6978,6,3,4,5,0,40,0,0,0,0,127.53,34.76074136,-4.50E-08,31.77443751