ID,Name,InChI,InChIKey,SMILES,Solubility,SD,Ocurrences,Group,MolWt,MolLogP,MolMR,HeavyAtomCount,NumHAcceptors,NumHDonors,NumHeteroatoms,NumRotatableBonds,NumValenceElectrons,NumAromaticRings,NumSaturatedRings,NumAliphaticRings,RingCount,TPSA,LabuteASA,BalabanJ,BertzCT
A-619,carbon monoxide; iron,InChI=1S/5CO.Fe/c5*1-2;,FYOFOKCECDGJBF-UHFFFAOYSA-N,[Fe].[C-]#[O+].[C-]#[O+].[C-]#[O+].[C-]#[O+].[C-]#[O+],-3.292023351,0.178273662,2,G3,195.895,-0.19005,19.6475,11,0,0,6,0,58,0,0,0,0,99.5,74.22020095,-6.94E-09,73.43782579
A-620,3-methyl-5-(prop-2-enoyloxy)pentyl prop-2-enoate,"InChI=1S/C12H18O4/c1-4-11(13)15-8-6-10(3)7-9-16-12(14)5-2/h4-5,10H,1-2,6-9H2,3H3",IQGIEMYBDGDBMR-UHFFFAOYSA-N,CC(CCOC(=O)C=C)CCOC(=O)C=C,-2.621433551,0,1,G1,226.272,1.8611,60.71,16,4,0,4,8,90,0,0,0,0,52.6,95.92454288,3.473591235,231.7443751
A-622,3-chloroaniline,"InChI=1S/C6H6ClN/c7-5-2-1-3-6(8)4-5/h1-4H,8H2",PNPCRKVUWYDDST-UHFFFAOYSA-N,Nc1cccc(Cl)c1,-1.373368413,0.026823725,2,G3,127.574,1.9222,35.8644,8,1,1,2,0,42,1,0,0,1,26.02,53.07456004,3.077660438,168.3883389
A-624,decahydronaphthalen-2-yl acetate,"InChI=1S/C12H20O2/c1-9(13)14-12-7-6-10-4-2-3-5-11(10)8-12/h10-12H,2-8H2,1H3",XKCLIPLFEJSOAT-UHFFFAOYSA-N,CC(=O)OC1CCC2CCCCC2C1,-3.560504415,0,1,G1,196.29,2.9084,54.853,14,2,0,2,1,80,0,2,2,2,26.3,86.01701931,1.857394993,212.3672689
A-625,"2-hexadecan-2-yl-4,6-dimethylphenol","InChI=1S/C24H42O/c1-5-6-7-8-9-10-11-12-13-14-15-16-17-21(3)23-19-20(2)18-22(4)24(23)25/h18-19,21,25H,5-17H2,1-4H3",TVWGHFVGFWIHFN-UHFFFAOYSA-N,CCCCCCCCCCCCCCC(C)c1cc(C)cc(C)c1O,-7.335707323,0.485985638,2,G3,346.599,8.20374,111.6908,25,1,1,1,14,144,1,0,0,1,20.23,156.7945949,2.045784386,463.4085739
A-626,cyclopentene,"InChI=1S/C5H8/c1-2-4-5-3-1/h1-2H,3-5H2",LPIQUOYDBNQMRZ-UHFFFAOYSA-N,C1CC=CC1,-2.104914482,0.2621169,2,G3,68.119,1.7265,22.991,5,0,0,0,0,28,0,0,1,1,0,32.5035853,2.323850869,38
A-628,"2-[(6-oxobenzo[c][2,1]benzoxaphosphinin-6-yl)methyl]butanedioic acid","InChI=1S/C17H15O6P/c18-16(19)9-11(17(20)21)10-24(22)15-8-4-2-6-13(15)12-5-1-3-7-14(12)23-24/h1-8,11H,9-10H2,(H,18,19)(H,20,21)",XZAXQWXHBDKYJI-UHFFFAOYSA-N,OC(=O)CC(C[P]1(=O)Oc2ccccc2c3ccccc13)C(O)=O,-2.813509506,0,1,G1,346.275,2.8249,87.9921,24,4,2,7,5,124,2,0,1,3,100.9,137.7087038,2.063280667,859.6642016
A-638,methane; sulfuric acid,"InChI=1S/CH4.H2O4S/c;1-5(2,3)4/h1H4;(H2,1,2,3,4)",LRPCLTPZMUIPFK-UHFFFAOYSA-N,C.O[S](O)(=O)=O,-3.333093505,0.86869123,5,G4,114.122,-0.0167,20.9084,6,2,2,5,0,40,0,0,0,0,74.6,36.37695582,0,90.71649287
A-639,hexafluoroethane,"InChI=1S/C2F6/c3-1(4,5)2(6,7)8",WMIYKQLTONQJES-UHFFFAOYSA-N,FC(F)(F)C(F)(F)F,-2.423907212,0.912496394,2,G2,138.01,2.111,12.11,8,0,0,6,0,50,0,0,0,0,0,40.09740556,4.020391543,61.509775
A-640,"(4E)-5,9-dimethyldeca-4,8-dienal","InChI=1S/C12H20O/c1-11(2)7-6-9-12(3)8-4-5-10-13/h7-8,10H,4-6,9H2,1-3H3/b12-8-",MMLYERLRGHVBEK-WQLSENKSSA-N,CC(C)=CCC\C(C)=C/CCC=O,-3.538303545,0,1,G1,180.291,3.6582,57.72,13,1,0,1,6,74,0,0,0,0,17.07,81.53593032,3.601299451,195.1700163
A-645,phenyl methacrylate,"InChI=1S/C10H10O2/c1-8(2)10(11)12-9-6-4-3-5-7-9/h3-7H,1H2,2H3",QIWKUEJZZCOPFV-UHFFFAOYSA-N,CC(=C)C(=O)Oc1ccccc1,-2.494851361,0,1,G1,162.188,2.1681,46.891,12,2,0,2,2,62,1,0,0,1,26.3,71.47663587,2.650397773,287.966706
A-646,cobalt(2+) bis(4-oxopent-2-en-2-olate),"InChI=1S/2C5H8O2.Co/c2*1-4(6)3-5(2)7;/h2*3,6H,1-2H3;/q;;+2/p-2",UTYYEGLZLFAFDI-UHFFFAOYSA-L,[Co++].CC([O-])=CC(C)=O.CC([O-])=CC(C)=O,-1.697530099,0.01698804,2,G3,257.151,-0.3235,48.876,15,4,0,5,2,87,0,0,0,0,80.26,99.88190033,-1.80E-07,230.5959536
A-647,"2,6,6-trimethylcyclohexa-1,3-diene-1-carbaldehyde","InChI=1S/C10H14O/c1-8-5-4-6-10(2,3)9(8)7-11/h4-5,7H,6H2,1-3H3",SGAWOGXMMPSZPB-UHFFFAOYSA-N,CC1=C(C=O)C(C)(C)CC=C1,-2.465007757,0,1,G1,150.221,2.4879,46.302,11,1,0,1,1,60,0,0,1,1,17.07,67.80021494,3.095228966,231.2573322
A-648,"2,6-di-tert-butyl-4-[(dimethylamino)methyl]phenol","InChI=1S/C17H29NO/c1-16(2,3)13-9-12(11-18(7)8)10-14(15(13)19)17(4,5)6/h9-10,19H,11H2,1-8H3",VMZVBRIIHDRYGK-UHFFFAOYSA-N,CN(C)Cc1cc(c(O)c(c1)C(C)(C)C)C(C)(C)C,-2.711387028,1.210300847,4,G4,263.425,4.0488,82.8978,19,2,1,2,2,108,1,0,0,1,23.47,117.9998338,3.478708434,412.3054736
A-649,4-cyclohexyl-4-methylpentan-2-one,"InChI=1S/C12H22O/c1-10(13)9-12(2,3)11-7-5-4-6-8-11/h11H,4-9H2,1-3H3",OAFJAALOFJVHMK-UHFFFAOYSA-N,CC(=O)CC(C)(C)C1CCCCC1,-3.548153643,0,1,G1,182.307,3.572,55.654,13,1,0,1,3,76,0,1,1,1,17.07,81.90930523,2.501356703,175.5634981
A-652,5-methyl-2-(propan-2-yl)cyclohexan-1-ol,"InChI=1S/C10H20O/c1-7(2)9-5-4-8(3)6-10(9)11/h7-11H,4-6H2,1-3H3",NOOLISFMXDJSKH-UHFFFAOYSA-N,CC(C)C1CCC(C)CC1O,-2.488009121,0.081283066,5,G5,156.269,2.4395,47.3498,11,1,1,1,1,66,0,1,1,1,20.23,69.81213266,2.43715926,120.0411847
A-653,Cobalt molybdate,InChI=1S/Co.Mo.4O/q+2;;;;2*-1,KYYSIVCCYWZZLR-UHFFFAOYSA-N,[Co++].[O-][Mo]([O-])(=O)=O,-2.634320541,0,1,G1,218.869,-2.6206,1.373,6,4,0,6,0,39,0,0,0,0,80.26,48.09100054,0,90.71649287
A-655,"1-N-phenylbenzene-1,4-diamine","InChI=1S/C12H12N2/c13-10-6-8-12(9-7-10)14-11-4-2-1-3-5-11/h1-9,14H,13H2",ATGUVEKSASEFFO-UHFFFAOYSA-N,Nc1ccc(Nc2ccccc2)cc1,-2.563130476,0,1,G1,184.242,3.0124,60.5791,14,2,2,2,2,70,2,0,0,2,38.05,83.37825021,2.155110851,392.4267229
A-656,"N,2-dimethyl-N-phenylbutanamide","InChI=1S/C12H17NO/c1-4-10(2)12(14)13(3)11-8-6-5-7-9-11/h5-10H,4H2,1-3H3",LNODIGSABOGNBQ-UHFFFAOYSA-N,CCC(C)C(=O)N(C)c1ccccc1,-1.580579513,0,1,G1,191.274,2.6955,59.307,14,1,0,2,3,76,1,0,0,1,20.31,85.54241158,2.756529399,294.4498559
A-657,dimethoxymethylvinylsilane,"InChI=1S/C5H12O2Si/c1-5-8(4,6-2)7-3/h5H,1H2,2-4H3",ZLNAFSPCNATQPQ-UHFFFAOYSA-N,CO[Si](C)(OC)C=C,0.577623585,0,1,G1,132.235,1.0764,35.833,8,2,0,3,3,48,0,0,0,0,18.46,51.36415122,3.763089869,78.49785514
A-659,pyridine-3-carboxamide,"InChI=1S/C6H6N2O/c7-6(9)5-2-1-3-8-4-5/h1-4H,(H2,7,9)",DFPAKSUCGFBDDF-UHFFFAOYSA-N,NC(=O)c1cccnc1,0.612158315,0,1,G1,122.127,0.1805,32.7549,9,2,1,3,1,46,1,0,0,1,55.98,52.51740601,2.981454614,207.5576621
A-660,bis(4-hydroxy-N-methylanilinium) sulfate,"InChI=1S/2C7H9NO.H2O4S/c2*1-8-6-2-4-7(9)5-3-6;1-5(2,3)4/h2*2-5,8-9H,1H3;(H2,1,2,3,4)",ZVNPWFOVUDMGRP-UHFFFAOYSA-N,CNc1ccc(O)cc1.CNc2ccc(O)cc2.O[S](O)(=O)=O,-0.838079267,0.106498411,2,G3,344.389,2.215,89.4844,23,6,6,9,2,128,2,0,0,2,139.12,134.5501094,3.32E-07,603.1717765
A-661,"trisodium (4E)-3-oxo-4-[2-(4-sulfonatonaphthalen-1-yl)hydrazin-1-ylidene]-3,4-dihydronaphthalene-2,7-disulfonate","InChI=1S/C20H14N2O10S3.3Na/c23-20-18(35(30,31)32)10-11-9-12(33(24,25)26)5-6-13(11)19(20)22-21-16-7-8-17(34(27,28)29)15-4-2-1-3-14(15)16;;;/h1-10,21H,(H,24,25,26)(H,27,28,29)(H,30,31,32);;;/q;3*+1/p-3/b22-19+;;;",VOBHRQFELWTZFS-DXVNCNPQSA-K,[Na+].[Na+].[Na+].[O-][S](=O)(=O)c1ccc2c(c1)C=C(C(=O)/C2=N/Nc3ccc(c4ccccc34)[S]([O-])(=O)=O)[S]([O-])(=O)=O,-1.082414087,0.039590623,2,G3,604.483,-8.055,119.1573,38,12,1,18,5,182,3,0,1,4,213.06,283.6374458,2.41E-06,1821.948433
A-662,"3,5-dimethylphenol","InChI=1S/C8H10O/c1-6-3-7(2)5-8(9)4-6/h3-5,9H,1-2H3",TUAMRELNJMMDMT-UHFFFAOYSA-N,Cc1cc(C)cc(O)c1,-1.387983905,0.005275091,2,G3,122.167,2.00904,37.5808,9,1,1,1,0,48,1,0,0,1,20.23,54.9555211,3.16567031,165.3298402
A-665,"2,2-bis[(prop-2-enoyloxy)methyl]butyl prop-2-enoate","InChI=1S/C15H20O6/c1-5-12(16)19-9-15(8-4,10-20-13(17)6-2)11-21-14(18)7-3/h5-7H,1-3,8-11H2,4H3",DAKWPKUUDNSNPN-UHFFFAOYSA-N,CCC(COC(=O)C=C)(COC(=O)C=C)COC(=O)C=C,-2.772789495,0,1,G1,296.319,1.5704,76.192,21,6,0,6,10,116,0,0,0,0,78.9,123.6048335,4.872529375,364.066242
A-666,"2,6-dimethylheptan-4-one","InChI=1S/C9H18O/c1-7(2)5-9(10)6-8(3)4/h7-8H,5-6H2,1-4H3",PTTPXKJBFFKCEK-UHFFFAOYSA-N,CC(C)CC(=O)CC(C)C,-2.454057846,0.357211482,3,G5,142.242,2.6477,43.917,10,1,0,1,4,60,0,0,0,0,17.07,63.82031004,3.44438706,91.29589375
A-667,"4-allyl-1,2-dimethoxybenzene","InChI=1S/C11H14O2/c1-4-5-9-6-7-10(12-2)11(8-9)13-3/h4,6-8H,1,5H2,2-3H3",ZYEMGPIYFIJGTP-UHFFFAOYSA-N,COc1ccc(CC=C)cc1OC,-2.55201324,0,1,G1,178.231,2.4323,53.447,13,2,0,2,4,70,1,0,0,1,18.46,78.79360112,2.975326756,292.141795
A-668,7-amino-4-hydroxynaphthalene-2-sulfonic acid,"InChI=1S/C10H9NO4S/c11-7-1-2-9-6(3-7)4-8(5-10(9)12)16(13,14)15/h1-5,12H,11H2,(H,13,14,15)",KYARBIJYVGJZLB-UHFFFAOYSA-N,Nc1ccc2c(O)cc(cc2c1)[S](O)(=O)=O,-2.679885573,0.048455007,2,G3,239.252,1.3743,59.8398,16,4,3,6,1,84,2,0,0,2,100.62,91.87582811,2.851898649,663.8185193
A-669,aluminium(3+) ion 6-sulfonato-1-[(E)-2-(4-sulfonatophenyl)diazen-1-yl]naphthalen-2-olate,"InChI=1S/C16H12N2O7S2.Al/c19-15-8-1-10-9-13(27(23,24)25)6-7-14(10)16(15)18-17-11-2-4-12(5-3-11)26(20,21)22;/h1-9,19H,(H,20,21,22)(H,23,24,25);/q;+3/p-3",FFVVMXXUKCHQFS-UHFFFAOYSA-K,[Al+3].[O-]c1ccc2cc(ccc2c1N=Nc3ccc(cc3)[S]([O-])(=O)=O)[S]([O-])(=O)=O,-2.936886553,0,1,G1,432.371,1.7562,95.6924,28,9,0,12,4,140,3,0,0,3,162.18,170.5419585,2.80E-06,1272.34066
A-673,methyl 2-[3-(acetyloxy)-2-pentylcyclopent-2-en-1-yl]acetate,"InChI=1S/C15H24O4/c1-4-5-6-7-13-12(10-15(17)18-3)8-9-14(13)19-11(2)16/h12H,4-10H2,1-3H3",IVEVYZAZHQVESM-UHFFFAOYSA-N,CCCCCC1=C(CCC1CC(=O)OC)OC(C)=O,-3.721988672,0,1,G1,268.353,3.357,72.291,19,4,0,4,7,108,0,0,1,1,52.6,114.7031411,2.715815598,357.157075
A-674,4-ethenylcyclohex-1-ene,"InChI=1S/C8H12/c1-2-8-6-4-3-5-7-8/h2-4,8H,1,5-7H2",BBDKZWKEPDTENS-UHFFFAOYSA-N,C=CC1CCC=CC1,-3.335193031,0,1,G1,108.184,2.5287,36.678,8,0,0,0,1,44,0,0,1,1,0,50.90880861,2.371415796,100.6059378
A-675,"5-hydroxy-2-(3-hydroxy-4-methoxyphenyl)-4-oxo-3,4-dihydro-2H-chromen-7-yl 6-O-(6-deoxy-alpha-L-mannopyranosyl)-beta-D-glucopyranoside","InChI=1S/C28H34O15/c1-10-21(32)23(34)25(36)27(40-10)39-9-19-22(33)24(35)26(37)28(43-19)41-12-6-14(30)20-15(31)8-17(42-18(20)7-12)11-3-4-16(38-2)13(29)5-11/h3-7,10,17,19,21-30,32-37H,8-9H2,1-2H3/t10-,17-,19+,21-,22+,23+,24-,25+,26+,27+,28+/m0/s1",QUQPHWDTPGMPEX-QJBIFVCTSA-N,COc1ccc(cc1O)[C@@H]2CC(=O)c3c(O)cc(O[C@@H]4O[C@H](CO[C@@H]5O[C@@H](C)[C@H](O)[C@@H](O)[C@H]5O)[C@@H](O)[C@H](O)[C@H]4O)cc3O2,-5.010485646,0.12084849,6,G5,610.565,-1.1566,140.6989,43,15,8,15,7,236,2,2,3,5,234.29,244.5067412,1.303996578,1319.303868
A-676,2-[(2-hydroxyethyl)[(9E)-octadec-9-en-1-yl]amino]ethan-1-ol,"InChI=1S/C22H45NO2/c1-2-3-4-5-6-7-8-9-10-11-12-13-14-15-16-17-18-23(19-21-24)20-22-25/h9-10,24-25H,2-8,11-22H2,1H3/b10-9+",BITAPBDLHJQAID-MDZDMXLPSA-N,CCCCCCCC/C=C/CCCCCCCCN(CCO)CCO,-4.78011829,0,1,G1,355.607,5.3105,110.0636,25,3,2,3,20,150,0,0,0,0,43.7,157.0617336,3.232520544,262.7528343
A-677,"tributyl benzene-1,2,4-tricarboxylate","InChI=1S/C21H30O6/c1-4-7-12-25-19(22)16-10-11-17(20(23)26-13-8-5-2)18(15-16)21(24)27-14-9-6-3/h10-11,15H,4-9,12-14H2,1-3H3",RJIFVNWOLLIBJV-UHFFFAOYSA-N,CCCCOC(=O)c1ccc(C(=O)OCCCC)c(c1)C(=O)OCCCC,-4.807173711,0,1,G1,378.465,4.5573,102.0135,27,6,0,6,12,150,1,0,0,1,78.9,160.7307368,3.008726531,623.097889
A-679,"1-(butan-2-yl)-4-{4-[4-(4-hydroxyphenyl)piperazin-1-yl]phenyl}-4,5-dihydro-1H-1,2,4-triazol-5-one","InChI=1S/C22H27N5O2/c1-3-17(2)27-22(29)26(16-23-27)20-6-4-18(5-7-20)24-12-14-25(15-13-24)19-8-10-21(28)11-9-19/h4-11,16-17,28H,3,12-15H2,1-2H3",FFAQILVGBAELHN-UHFFFAOYSA-N,CCC(C)N1N=CN(C1=O)c2ccc(cc2)N3CCN(CC3)c4ccc(O)cc4,-4.828521956,0,1,G1,393.491,3.0372,115.3588,29,7,1,7,5,152,3,1,1,4,66.53,169.9715734,1.433146256,998.931932
A-680,3-(trimethoxysilyl)propyl prop-2-enoate,"InChI=1S/C9H18O5Si/c1-5-9(10)14-7-6-8-15(11-2,12-3)13-4/h5H,1,6-8H2,2-4H3",KBQVDAIIQCXKPI-UHFFFAOYSA-N,CO[Si](CCCOC(=O)C=C)(OC)OC,-4.606388779,0,1,G1,234.324,0.9838,57.361,15,5,0,6,8,88,0,0,0,0,53.99,91.33586076,3.808771306,194.4147222
A-683,undecan-1-ol,"InChI=1S/C11H24O/c1-2-3-4-5-6-7-8-9-10-11-12/h12H,2-11H2,1H3",KJIOQYGWTQBHNH-UHFFFAOYSA-N,CCCCCCCCCCCO,-4.480440668,0,1,G1,172.312,3.5095,54.3128,12,1,1,1,9,74,0,0,0,0,20.23,77.18290592,2.727242813,61.4043641
A-686,barium(+2) cation; dioxidoboron,InChI=1S/BO2.Ba/c2-1-3;/q-2;+2,MLPBXDBEWJPBBI-UHFFFAOYSA-N,[Ba++].[O-][B][O-],-2.340733519,0,1,G1,180.138,-3.1396,11.508,4,2,0,4,0,17,0,0,0,0,46.12,65.59601478,0,6
A-689,"(1S,2S,4S)-1,7,7-trimethylbicyclo[2.2.1]heptan-2-yl prop-2-enoate","InChI=1S/C13H20O2/c1-5-11(14)15-10-8-9-6-7-13(10,4)12(9,2)3/h5,9-10H,1,6-8H2,2-4H3/t9-,10?,13+/m0/s1",PSGCQDPCAWOCSH-BOURZNODSA-N,CC1(C)[C@H]2CC[C@]1(C)C(C2)OC(=O)C=C,-4.583092455,0.280533145,2,G3,208.301,2.9304,59.306,15,2,0,2,2,84,0,2,2,2,26.3,91.69235839,2.186062945,305.6578138
A-690,"2-quinolin-2-yl-1H-indene-1,3(2H)-dione","InChI=1S/C18H11NO2/c20-17-12-6-2-3-7-13(12)18(21)16(17)15-10-9-11-5-1-4-8-14(11)19-15/h1-10,16H",IZMJMCDDWKSTTK-UHFFFAOYSA-N,O=C1C(c2ccc3ccccc3n2)C(=O)c4ccccc14,-4.701186127,0.753776249,2,G2,273.291,3.3976,79.587,21,3,0,3,1,100,3,0,1,4,47.03,120.8018492,1.864963707,863.3687318
A-691,tert-butoxy 2-ethylhexyl carbonate,"InChI=1S/C13H26O4/c1-6-8-9-11(7-2)10-15-12(14)16-17-13(3,4)5/h11H,6-10H2,1-5H3",BRQMAAFGEXNUOL-UHFFFAOYSA-N,CCCCC(CC)COC(=O)OOC(C)(C)C,-4.659958513,0,1,G1,246.347,4.0861,66.577,17,4,0,4,7,102,0,0,0,0,44.76,104.5500095,3.732232764,207.9552269
A-692,dicyclopentyldimethoxysilane,"InChI=1S/C12H24O2Si/c1-13-15(14-2,11-7-3-4-8-11)12-9-5-6-10-12/h11-12H,3-10H2,1-2H3",JWCYDYZLEAQGJJ-UHFFFAOYSA-N,CO[Si](OC)(C1CCCC1)C2CCCC2,-4.632799679,0.526119809,2,G2,228.408,3.6098,64.208,15,2,0,3,4,88,0,2,2,2,18.46,94.59668674,2.125017942,173.7988001
A-693,"3,3,5-trimethylcyclohexyl 2-methylprop-2-enoate","InChI=1S/C13H22O2/c1-9(2)12(14)15-11-6-10(3)7-13(4,5)8-11/h10-11H,1,6-8H2,2-5H3",DABQKEQFLJIRHU-UHFFFAOYSA-N,CC1CC(CC(C)(C)C1)OC(=O)C(C)=C,-4.598598509,0,1,G1,210.317,3.3205,61.49,15,2,0,2,2,86,0,1,1,1,26.3,92.69818954,2.55714746,265.7095182
A-697,"Butanal, reaction products with aniline","InChI=1S/C6H7N.C4H8O/c7-6-4-2-1-3-5-6;1-2-3-4-5/h1-5H,7H2;4H,2-3H2,1H3",SRGBNANKQPZXFZ-UHFFFAOYSA-N,CCCC=O.Nc1ccccc1,-4.50210133,0,1,G1,165.236,2.2542,51.8264,12,2,1,2,2,66,1,0,0,1,43.09,73.39841553,2.17E-07,196.2533698
A-698,zinc(2+) ion didodecanoate,"InChI=1S/2C12H24O2.Zn/c2*1-2-3-4-5-6-7-8-9-10-11-12(13)14;/h2*2-11H2,1H3,(H,13,14);/q;;+2/p-2",GPYYEEJOMCKTPR-UHFFFAOYSA-L,[Zn++].CCCCCCCCCCCC([O-])=O.CCCCCCCCCCCC([O-])=O,-4.950531484,0,1,G1,464.018,5.3119,113.702,29,4,0,5,20,168,0,0,0,0,80.26,192.9335906,-4.51E-07,302.8423488
A-699,"3-methyl-N-(3-{3-methyl-N-[2-(3-methyl-N-{2-[2-(2-methylheptadecyl)-4,5-dihydro-1H-imidazol-1-yl]ethyl}octadecanamido)ethyl]octadecanamido}propyl)octadecanamide; 3-methyl-N-(3-{[2-(3-methyl-N-{2-[2-(2-methylheptadecyl)-4,5-dihydro-1H-imidazol-1-yl]ethyl}octadecanamido)ethyl]amino}propyl)octadecanamide; 3-methyl-N-(3-{[2-({2-[2-(2-methylheptadecyl)-4,5-dihydro-1H-imidazol-1-yl]ethyl}amino)ethyl]amino}propyl)octadecanamide; 3-methyl-N-[3-({2-[(2-{[2-(3-methyloctadecanamido)ethyl]amino}ethyl)amino]ethyl}amino)propyl]octadecanamide; 3-methyl-N-{2-[(2-{3-methyl-N-[2-(piperazin-1-yl)ethyl]octadecanamido}ethyl)amino]ethyl}octadecanamide; 3-methyl-N-{2-[2-(2-methylheptadecyl)-4,5-dihydro-1H-imidazol-1-yl]ethyl}-N-[2-(piperazin-1-yl)ethyl]octadecanamide; 3-methyl-N-{3-[(2-{3-methyl-N-[2-({2-[(4-methylnonadec-1-en-2-yl)amino]ethyl}amino)ethyl]octadecanamido}ethyl)amino]propyl}octadecanamide","InChI=1S/C18H36O2.C8H23N5/c1-2-3-4-5-6-7-8-9-10-11-12-13-14-15-16-17-18(19)20;9-1-3-11-5-7-13-8-6-12-4-2-10/h2-17H2,1H3,(H,19,20);11-13H,1-10H2",CDCSRZWJRXOXLQ-UHFFFAOYSA-N,CCCCCCCCCCCCCCCCCC(O)=O.NCCNCCNCCNCCN,-4.960419449,0,1,G1,473.791,4.0051,143.8997,33,6,6,7,26,200,0,0,0,0,125.43,205.1537588,0,349.5739447
A-701,(3Z)-hex-3-en-1-yl 2-hydroxybenzoate,"InChI=1S/C13H16O3/c1-2-3-4-7-10-16-13(15)11-8-5-6-9-12(11)14/h3-6,8-9,14H,2,7,10H2,1H3/b4-3+",IEPWIPZLLIOZLU-ONEGZZNKSA-N,CC/C=C/CCOC(=O)c1ccccc1O,-4.643981404,0,1,G1,220.268,2.9053,62.4373,16,3,1,3,5,86,1,0,0,1,46.53,95.36569597,2.414416734,369.1953854
A-705,"(2S,5R)-5-methyl-2-(propan-2-yl)cyclohexan-1-one","InChI=1S/C10H18O/c1-7(2)9-5-4-8(3)6-10(9)11/h7-9H,4-6H2,1-3H3/t8-,9+/m1/s1",NFLGAXVYCFJBMK-BDAKNGLRSA-N,CC(C)[C@@H]1CC[C@@H](C)CC1=O,-2.491877231,0.10505924,3,G5,154.253,2.6477,46.35,11,1,0,1,1,64,0,1,1,1,17.07,69.179421,2.507693916,148.9517669
A-706,4-(methoxycarbonyl)-3-nitrobenzoic acid,"InChI=1S/C9H7NO6/c1-16-9(13)6-3-2-5(8(11)12)4-7(6)10(14)15/h2-4H,1H3,(H,11,12)",MIIADZYPHVTLPR-UHFFFAOYSA-N,COC(=O)c1ccc(cc1[N+]([O-])=O)C(O)=O,-2.657001848,0,1,G1,225.156,1.0796,51.3952,16,5,1,7,3,84,1,0,0,1,106.74,89.41002837,3.357712531,467.0670566
A-708,"1,3,5-trimethylbenzene","InChI=1S/C9H12/c1-7-4-8(2)6-9(3)5-7/h4-6H,1-3H3",AUHZEENZYGFFBQ-UHFFFAOYSA-N,Cc1cc(C)cc(C)c1,-3.382657059,0.007091152,2,G3,120.195,2.61186,40.653,9,0,0,0,0,48,1,0,0,1,0,56.52622946,3.16567031,160.8005151
A-709,2-methyl-6-methylideneoct-7-en-2-yl acetate,"InChI=1S/C12H20O2/c1-6-10(2)8-7-9-12(4,5)14-11(3)13/h6H,1-2,7-9H2,3-5H3",DCXXKSXLKWAZNO-UHFFFAOYSA-N,CC(=O)OC(C)(C)CCCC(=C)C=C,-3.597416499,0.187667695,2,G3,196.29,3.2406,59.033,14,2,0,2,6,80,0,0,0,0,26.3,86.64947555,3.808919297,226.4762284
A-713,2-chloro-1-methyl-4-nitrobenzene,"InChI=1S/C7H6ClNO2/c1-5-2-3-6(9(10)11)4-7(5)8/h2-4H,1H3",LLYXJBROWQDVMI-UHFFFAOYSA-N,Cc1ccc(cc1Cl)[N+]([O-])=O,-3.544278177,0,1,G1,171.583,2.55662,42.8434,11,2,0,4,1,58,1,0,0,1,43.14,68.75258718,3.151549668,298.4920898
A-714,"N,N,N-trimethyloctadecan-1-aminium chloride","InChI=1S/C21H46N.ClH/c1-5-6-7-8-9-10-11-12-13-14-15-16-17-18-19-20-21-22(2,3)4;/h5-21H2,1-4H3;1H/q+1;/p-1",VBIIFPGSPJYLRR-UHFFFAOYSA-M,[Cl-].CCCCCCCCCCCCCCCCCC[N+](C)(C)C,-3.851456788,0,1,G1,348.059,3.9581,102.4454,23,0,0,2,17,142,0,0,0,0,0,154.1609917,0,210.3773341
A-718,"N,N-dipropylpropan-1-amine","InChI=1S/C9H21N/c1-4-7-10(8-5-2)9-6-3/h4-9H2,1-3H3",YFTHZRPMJXBUME-UHFFFAOYSA-N,CCCN(CCC)CCC,-2.472220255,0.099276176,3,G5,143.274,2.5184,47.313,10,1,0,1,6,62,0,0,0,0,3.24,65.41862161,3.295082116,47.48394346
A-719,ammonia,InChI=1S/H3N/h1H3,QGZKDVFQNNGYKY-UHFFFAOYSA-N,N,1.451806889,0.029165464,4,G5,17.031,0.162,5.0221,1,1,1,1,0,8,0,0,0,0,35,7.504228124,0,0
A-722,2-oxo-N-{6-[(2-oxoazepane-1-carbonyl)amino]hexyl}azepane-1-carboxamide,"InChI=1S/C20H34N4O4/c25-17-11-5-3-9-15-23(17)19(27)21-13-7-1-2-8-14-22-20(28)24-16-10-4-6-12-18(24)26/h1-16H2,(H,21,27)(H,22,28)",YOVRNJUIHVNXCB-UHFFFAOYSA-N,O=C1CCCCCN1C(=O)NCCCCCCNC(=O)N2CCCCCC2=O,-3.906400656,0,1,G1,394.516,2.7712,105.6274,28,4,2,8,7,158,0,2,2,2,98.82,166.926969,1.498076737,504.323776
A-724,3-methylbutyl 3-methylbutanoate,"InChI=1S/C10H20O2/c1-8(2)5-6-12-10(11)7-9(3)4/h8-9H,5-7H2,1-4H3",XINCECQTMHSORG-UHFFFAOYSA-N,CC(C)CCOC(=O)CC(C)C,-3.554059535,0,1,G1,172.268,2.6218,49.869,12,2,0,2,5,72,0,0,0,0,26.3,75.29879739,3.319780861,127.8002691
A-725,2-propylheptan-1-ol,"InChI=1S/C10H22O/c1-3-5-6-8-10(9-11)7-4-2/h10-11H,3-9H2,1-2H3",YLQLIQIAXYRMDL-UHFFFAOYSA-N,CCCCCC(CO)CCC,-3.518198523,0.157677981,4,G5,158.285,2.9753,49.6258,11,1,1,1,7,68,0,0,0,0,20.23,70.81796381,3.203898482,71.27302875
A-726,4-[2-(4-aminophenyl)ethyl]aniline,"InChI=1S/C14H16N2/c15-13-7-3-11(4-8-13)1-2-12-5-9-14(16)10-6-12/h3-10H,1-2,15-16H2",UHNUHZHQLCGZDA-UHFFFAOYSA-N,Nc1ccc(CCc2ccc(N)cc2)cc1,-3.645700574,0,1,G1,212.296,2.6362,69.1168,16,2,2,2,3,82,2,0,0,2,52.04,95.89816295,1.966014635,397.666487
A-728,methyl nicotinate,"InChI=1S/C7H7NO2/c1-10-7(9)6-3-2-4-8-5-6/h2-5H,1H3",YNBADRVTZLEFNH-UHFFFAOYSA-N,COC(=O)c1cccnc1,-0.459550859,0,1,G1,137.138,0.8682,35.5765,10,3,0,3,1,52,1,0,0,1,39.19,58.65600266,2.852627929,220.307533
A-731,"calcium 2,3-dihydroxybutanedioate","InChI=1S/C4H6O6.Ca/c5-1(3(7)8)2(6)4(9)10;/h1-2,5-6H,(H,7,8)(H,9,10);/q;+2/t1-,2-;/m1./s1",GUPPESBEIQALOS-ZVGUSBNCSA-N,[Ca++].O[C@H]([C@@H](O)C(O)=O)C(O)=O,-2.602434694,0.76584343,3,G4,190.164,-2.5034,33.0392,11,4,4,7,3,58,0,0,0,0,115.06,91.44982458,0,138.6612729
A-738,4-tert-butylbenzoic acid,"InChI=1S/C11H14O2/c1-11(2,3)9-6-4-8(5-7-9)10(12)13/h4-7H,1-3H3,(H,12,13)",KDVYCTOWXSLNNI-UHFFFAOYSA-N,CC(C)(C)c1ccc(cc1)C(O)=O,-3.577962337,1.201044774,3,G4,178.231,2.6823,52.1013,13,1,1,2,1,70,1,0,0,1,37.3,78.21186954,3.008740829,303.8573182
A-740,chlorocopper,InChI=1S/ClH.Cu/h1H;/q;+1/p-1,OXBLHERUFWYNTN-UHFFFAOYSA-M,[Cl-].[Cu+],-3.32353295,0,1,G1,98.999,-2.9985,0,2,0,0,2,0,18,0,0,0,0,0,30.11719128,0,2
A-741,molybdenum nickel tetraoxide,InChI=1S/Mo.Ni.4O/q2*+2;4*-1,AXSAYZUZQSGYFU-UHFFFAOYSA-N,[Ni++].[O-][Mo++]([O-])([O-])[O-],-1.672068062,0,1,G1,218.629,-4.761,0,6,4,0,6,0,40,0,0,0,0,92.24,49.37566404,0,23.01955001